----- Optimization -----
      -----------------------------------------------------------      
     |                   =====================                   |     
     |                           x T B                           |     
     |                   =====================                   |     
     |                         S. Grimme                         |     
     |          Mulliken Center for Theoretical Chemistry        |     
     |                    University of Bonn                     |     
      -----------------------------------------------------------      

   * xtb version 6.7.1 (edcfbbe) compiled by 'conda@3ef47c1a292c' on 2024-11-25

   xtb is free software: you can redistribute it and/or modify it under
   the terms of the GNU Lesser General Public License as published by
   the Free Software Foundation, either version 3 of the License, or
   (at your option) any later version.
   
   xtb is distributed in the hope that it will be useful,
   but WITHOUT ANY WARRANTY; without even the implied warranty of
   MERCHANTABILITY or FITNESS FOR A PARTICULAR PURPOSE.  See the
   GNU Lesser General Public License for more details.
   
   Cite this work as:
   * C. Bannwarth, E. Caldeweyher, S. Ehlert, A. Hansen, P. Pracht,
     J. Seibert, S. Spicher, S. Grimme, WIREs Comput. Mol. Sci., 2020, 11,
     e01493. DOI: 10.1002/wcms.1493
   
   for GFN2-xTB:
   * C. Bannwarth, S. Ehlert and S. Grimme., J. Chem. Theory Comput., 2019,
     15, 1652-1671. DOI: 10.1021/acs.jctc.8b01176
   for GFN1-xTB:
   * S. Grimme, C. Bannwarth, P. Shushkov, J. Chem. Theory Comput., 2017,
     13, 1989-2009. DOI: 10.1021/acs.jctc.7b00118
   for GFN0-xTB:
   * P. Pracht, E. Caldeweyher, S. Ehlert, S. Grimme, ChemRxiv, 2019, preprint.
     DOI: 10.26434/chemrxiv.8326202.v1
   for GFN-FF:
   * S. Spicher and S. Grimme, Angew. Chem. Int. Ed., 2020, 59, 15665-15673.
     DOI: 10.1002/anie.202004239
   
   for ALPB and GBSA implicit solvation:
   * S. Ehlert, M. Stahn, S. Spicher, S. Grimme, J. Chem. Theory Comput.,
     2021, 17, 4250-4261. DOI: 10.1021/acs.jctc.1c00471
   
   for ddCOSMO and CPCM-X implicit solvation:
   * M. Stahn, S. Ehlert, S. Grimme, J. Phys. Chem. A,
     2023, XX, XXXX-XXXX. DOI: 10.1021/acs.jpca.3c04382
   
   for DFT-D4:
   * E. Caldeweyher, C. Bannwarth and S. Grimme, J. Chem. Phys., 2017,
     147, 034112. DOI: 10.1063/1.4993215
   * E. Caldeweyher, S. Ehlert, A. Hansen, H. Neugebauer, S. Spicher,
     C. Bannwarth and S. Grimme, J. Chem. Phys., 2019, 150, 154122.
     DOI: 10.1063/1.5090222
   * E. Caldeweyher, J.-M. Mewes, S. Ehlert and S. Grimme, Phys. Chem. Chem. Phys.
     2020, 22, 8499-8512. DOI: 10.1039/D0CP00502A
   
   for sTDA-xTB:
   * S. Grimme and C. Bannwarth, J. Chem. Phys., 2016, 145, 054103.
     DOI: 10.1063/1.4959605
   
   in the mass-spec context:
   * V. Asgeirsson, C. Bauer and S. Grimme, Chem. Sci., 2017, 8, 4879.
     DOI: 10.1039/c7sc00601b
   * J. Koopman and S. Grimme, ACS Omega 2019, 4, 12, 15120-15133.
     DOI: 10.1021/acsomega.9b02011
   
   for metadynamics refer to:
   * S. Grimme, J. Chem. Theory Comput., 2019, 155, 2847-2862
     DOI: 10.1021/acs.jctc.9b00143
   
   for SPH calculations refer to:
   * S. Spicher and S. Grimme, J. Chem. Theory Comput., 2021, 17, 1701-1714
     DOI: 10.1021/acs.jctc.0c01306
   
   for ONIOM refer to:
   * C. Plett, A. Katbashev, S. Ehlert, S. Grimme, M. Bursch,
     Phys. Chem. Chem. Phys., 2023, 25, 17860-17868. DOI: 10.1039/D3CP02178E
   
   for DIPRO refer to:
   * J. Kohn, N. Gildemeister, S. Grimme, D. Fazzi, A. Hansen,
     J. Chem. Phys., 2023, just accepted.
   
   for PTB refer to:
   * S. Grimme, M. Mueller, A. Hansen, J. Chem. Phys., 2023, 158, 124111.
     DOI: 10.1063/5.0137838
   
   with help from (in alphabetical order)
   P. Atkinson, C. Bannwarth, F. Bohle, G. Brandenburg, E. Caldeweyher
   M. Checinski, S. Dohm, S. Ehlert, S. Ehrlich, I. Gerasimov, C. Hölzer
   A. Katbashev, J. Kohn, J. Koopman, C. Lavigne, S. Lehtola, F. März, M. Müller,
   F. Musil, H. Neugebauer, J. Pisarek, C. Plett, P. Pracht, F. Pultar,
   J. Seibert, P. Shushkov, S. Spicher, M. Stahn, M. Steiner, T. Strunk,
   J. Stückrath, T. Rose, and J. Unsleber
   
 * started run on 2025/05/15 at 16:18:32.231     
   ID    Z sym.   atoms
    1    6 C      1, 3, 5-7, 10-14, 16, 18, 19, 21-25, 27-32
    2    7 N      2, 4, 8, 15, 17, 20
    3    8 O      9
    4    9 F      26
    5    1 H      33-57

           -------------------------------------------------
          |                Calculation Setup                |
           -------------------------------------------------

          program call               : xtb /rds/general/user/hgt20/home/callum/QDESCP/Mizolastine_rdkit_conf_23/Mizolastine_rdkit_conf_23.xyz --opt normal --acc 1 --gfn 2 --chrg 0 --uhf 0 -P 1
          hostname                   : login-c
          coordinate file            : /rds/general/user/hgt20/home/callum/QDESCP/Mizolastine_rdkit_conf_23/Mizolastine_rdkit_conf_23.xyz
          omp threads                :                     1


           -------------------------------------------------
          |                 G F N 2 - x T B                 |
           -------------------------------------------------

        Reference                      10.1021/acs.jctc.8b01176
      * Hamiltonian:
        H0-scaling (s, p, d)           1.850000    2.230000    2.230000
        zeta-weighting                 0.500000
      * Dispersion:
        s8                             2.700000
        a1                             0.520000
        a2                             5.000000
        s9                             5.000000
      * Repulsion:
        kExp                           1.500000    1.000000
        rExp                           1.000000
      * Coulomb:
        alpha                          2.000000
        third order                    shell-resolved
        anisotropic                    true
        a3                             3.000000
        a5                             4.000000
        cn-shift                       1.200000
        cn-exp                         4.000000
        max-rad                        5.000000


          ...................................................
          :                      SETUP                      :
          :.................................................:
          :  # basis functions                 153          :
          :  # atomic orbitals                 153          :
          :  # shells                           89          :
          :  # electrons                       164          :
          :  max. iterations                   250          :
          :  Hamiltonian                  GFN2-xTB          :
          :  restarted?                      false          :
          :  GBSA solvation                  false          :
          :  PC potential                    false          :
          :  electronic temp.          300.0000000     K    :
          :  accuracy                    1.0000000          :
          :  -> integral cutoff          0.2500000E+02      :
          :  -> integral neglect         0.1000000E-07      :
          :  -> SCF convergence          0.1000000E-05 Eh   :
          :  -> wf. convergence          0.1000000E-03 e    :
          :  Broyden damping             0.4000000          :
          :  net charge                          0          :
          :  unpaired electrons                  0          :
          ...................................................

 iter      E             dE          RMSdq      gap      omega  full diag
   1    -91.6314283 -0.916314E+02  0.401E+00    3.06       0.0  T
   2    -91.7849132 -0.153485E+00  0.247E+00    3.12       1.0  T
   3    -91.7874700 -0.255680E-02  0.126E+00    3.19       1.0  T
   4    -91.7982865 -0.108165E-01  0.408E-01    2.89       1.0  T
   5    -91.8056205 -0.733395E-02  0.106E-01    2.92       1.0  T
   6    -91.8058507 -0.230212E-03  0.540E-02    2.92       1.0  T
   7    -91.8059250 -0.743085E-04  0.203E-02    2.92       1.0  T
   8    -91.8059262 -0.121309E-05  0.933E-03    2.93       1.4  T
   9    -91.8059280 -0.175663E-05  0.335E-03    2.93       4.0  T
  10    -91.8059281 -0.175388E-06  0.130E-03    2.93      10.2  T
  11    -91.8059282 -0.257380E-07  0.619E-04    2.93      21.4  T
  12    -91.8059282 -0.455152E-08  0.246E-04    2.93      53.9  T

   *** convergence criteria satisfied after 12 iterations ***

         #    Occupation            Energy/Eh            Energy/eV
      -------------------------------------------------------------
         1        2.0000           -0.8245235             -22.4364
       ...           ...                  ...                  ...
        76        2.0000           -0.3996992             -10.8764
        77        2.0000           -0.3959869             -10.7754
        78        2.0000           -0.3922809             -10.6745
        79        2.0000           -0.3869615             -10.5298
        80        2.0000           -0.3806577             -10.3582
        81        2.0000           -0.3781935             -10.2912
        82        2.0000           -0.3709069             -10.0929 (HOMO)
        83                         -0.2633595              -7.1664 (LUMO)
        84                         -0.2522776              -6.8648
        85                         -0.2493126              -6.7841
        86                         -0.2397751              -6.5246
        87                         -0.2339984              -6.3674
       ...                                ...                  ...
       153                          0.6982804              19.0012
      -------------------------------------------------------------
                  HL-Gap            0.1075474 Eh            2.9265 eV
             Fermi-level           -0.3171332 Eh           -8.6296 eV

 SCC (total)                   0 d,  0 h,  0 min,  0.107 sec
 SCC setup                      ...        0 min,  0.001 sec (  0.573%)
 Dispersion                     ...        0 min,  0.001 sec (  0.839%)
 classical contributions        ...        0 min,  0.000 sec (  0.243%)
 integral evaluation            ...        0 min,  0.012 sec ( 11.637%)
 iterations                     ...        0 min,  0.047 sec ( 44.310%)
 molecular gradient             ...        0 min,  0.045 sec ( 42.114%)
 printout                       ...        0 min,  0.000 sec (  0.277%)

         :::::::::::::::::::::::::::::::::::::::::::::::::::::
         ::                     SUMMARY                     ::
         :::::::::::::::::::::::::::::::::::::::::::::::::::::
         :: total energy             -90.550754498448 Eh    ::
         :: gradient norm              0.097625740064 Eh/a0 ::
         :: HOMO-LUMO gap              2.926514746712 eV    ::
         ::.................................................::
         :: SCC energy               -91.805424789717 Eh    ::
         :: -> isotropic ES            0.092700460513 Eh    ::
         :: -> anisotropic ES          0.008106111702 Eh    ::
         :: -> anisotropic XC          0.047275857271 Eh    ::
         :: -> dispersion             -0.066478109381 Eh    ::
         :: repulsion energy           1.254670291269 Eh    ::
         :: add. restraining           0.000000000000 Eh    ::
         :: total charge              -0.000000000000 e     ::
         :::::::::::::::::::::::::::::::::::::::::::::::::::::

      ----------------------------------------------------------- 
     |                   =====================                   |
     |                        A N C O P T                        |
     |                   =====================                   |
     |               Approximate Normal Coordinate               |
     |                Rational Function Optimizer                |
      ----------------------------------------------------------- 
      ----------------------------------------------------------- 
     |                   =====================                   |
     |                        A N C O P T                        |
     |                   =====================                   |
     |               Approximate Normal Coordinate               |
     |                Rational Function Optimizer                |
      ----------------------------------------------------------- 

          ...................................................
          :                      SETUP                      :
          :.................................................:
          :   optimization level            normal          :
          :   max. optcycles                   200          :
          :   ANC micro-cycles                  20          :
          :   degrees of freedom               165          :
          :.................................................:
          :   RF solver                   davidson          :
          :   write xtbopt.log                true          :
          :   linear?                        false          :
          :   energy convergence         0.5000000E-05 Eh   :
          :   grad. convergence          0.1000000E-02 Eh/α :
          :   maxmium RF displ.          1.0000000          :
          :   Hlow (freq-cutoff)         0.1000000E-01      :
          :   Hmax (freq-cutoff)         5.0000000          :
          :   S6 in model hess.         20.0000000          :
          ...................................................

generating ANC from exact Hessian ...
Using Lindh-Hessian (1995)
 Shifting diagonal of input Hessian by    9.8328702187659902E-003
 Lowest  eigenvalues of input Hessian
    0.000000    0.000000    0.000000    0.000000    0.000000    0.000000
    0.010000    0.010142    0.010250    0.010480    0.010740    0.011000
    0.011363    0.011814    0.012092    0.013205    0.014117    0.015398
 Highest eigenvalues
    2.037918    2.072560    2.183481    2.222223    2.285355    2.444733


........................................................................
.............................. CYCLE    1 ..............................
........................................................................

 iter      E             dE          RMSdq      gap      omega  full diag
   1    -91.8059282 -0.918059E+02  0.103E-04    2.93       0.0  T
   2    -91.8059282 -0.101949E-09  0.662E-05    2.93     200.1  T
   3    -91.8059282 -0.802629E-10  0.434E-05    2.93     305.2  T
     SCC iter.                  ...        0 min,  0.013 sec
     gradient                   ...        0 min,  0.045 sec
 * total energy  :   -90.5507545 Eh     change       -0.1490790E-08 Eh
   gradient norm :     0.0976260 Eh/α   predicted     0.0000000E+00 (-100.00%)
   displ. norm   :     0.3149858 α      lambda       -0.1385368E-01
   maximum displ.:     0.0989818 α      in ANC's #34, #22, #17, ...

........................................................................
.............................. CYCLE    2 ..............................
........................................................................

 iter      E             dE          RMSdq      gap      omega  full diag
   1    -91.8441928 -0.918442E+02  0.190E-01    2.88       0.0  T
   2    -91.8443323 -0.139567E-03  0.115E-01    2.89       1.0  T
   3    -91.8442737  0.585707E-04  0.569E-02    2.89       1.0  T
   4    -91.8443670 -0.932262E-04  0.149E-02    2.89       1.0  T
   5    -91.8443772 -0.102009E-04  0.404E-03    2.89       3.3  T
   6    -91.8443774 -0.202524E-06  0.182E-03    2.89       7.3  T
   7    -91.8443774 -0.519865E-07  0.565E-04    2.89      23.4  T
   8    -91.8443774 -0.545303E-08  0.226E-04    2.89      58.7  T
     SCC iter.                  ...        0 min,  0.030 sec
     gradient                   ...        0 min,  0.045 sec
 * total energy  :   -90.5602944 Eh     change       -0.9539921E-02 Eh
   gradient norm :     0.0463106 Eh/α   predicted    -0.7623944E-02 ( -20.08%)
   displ. norm   :     0.2970165 α      lambda       -0.4413784E-02
   maximum displ.:     0.1212473 α      in ANC's #8, #17, #22, ...

........................................................................
.............................. CYCLE    3 ..............................
........................................................................

 iter      E             dE          RMSdq      gap      omega  full diag
   1    -91.8640541 -0.918641E+02  0.125E-01    2.87       0.0  T
   2    -91.8641377 -0.836164E-04  0.749E-02    2.89       1.0  T
   3    -91.8641211  0.166288E-04  0.419E-02    2.88       1.0  T
   4    -91.8641599 -0.388484E-04  0.116E-02    2.88       1.1  T
   5    -91.8641663 -0.635695E-05  0.237E-03    2.88       5.6  T
   6    -91.8641663 -0.595117E-07  0.109E-03    2.88      12.2  T
   7    -91.8641664 -0.184656E-07  0.381E-04    2.88      34.7  T
   8    -91.8641664 -0.264465E-08  0.158E-04    2.88      84.0  T
     SCC iter.                  ...        0 min,  0.030 sec
     gradient                   ...        0 min,  0.067 sec
 * total energy  :   -90.5630228 Eh     change       -0.2728368E-02 Eh
   gradient norm :     0.0165897 Eh/α   predicted    -0.2403069E-02 ( -11.92%)
   displ. norm   :     0.2397915 α      lambda       -0.9821339E-03
   maximum displ.:     0.1508407 α      in ANC's #8, #17, #6, ...

........................................................................
.............................. CYCLE    4 ..............................
........................................................................

 iter      E             dE          RMSdq      gap      omega  full diag
   1    -91.8665611 -0.918666E+02  0.668E-02    2.89       0.0  T
   2    -91.8665840 -0.228273E-04  0.393E-02    2.90       1.0  T
   3    -91.8665791  0.484225E-05  0.221E-02    2.90       1.0  T
   4    -91.8665908 -0.116584E-04  0.551E-03    2.90       2.4  T
   5    -91.8665923 -0.150915E-05  0.112E-03    2.90      11.8  T
   6    -91.8665923 -0.198948E-07  0.573E-04    2.90      23.1  T
   7    -91.8665923 -0.416824E-08  0.195E-04    2.90      68.1  T
     SCC iter.                  ...        0 min,  0.027 sec
     gradient                   ...        0 min,  0.045 sec
 * total energy  :   -90.5637539 Eh     change       -0.7310884E-03 Eh
   gradient norm :     0.0100508 Eh/α   predicted    -0.5193100E-03 ( -28.97%)
   displ. norm   :     0.3521469 α      lambda       -0.8584490E-03
   maximum displ.:     0.2491987 α      in ANC's #8, #6, #11, ...

........................................................................
.............................. CYCLE    5 ..............................
........................................................................

 iter      E             dE          RMSdq      gap      omega  full diag
   1    -91.8660487 -0.918660E+02  0.903E-02    2.91       0.0  T
   2    -91.8660827 -0.340696E-04  0.524E-02    2.93       1.0  T
   3    -91.8660711  0.116359E-04  0.274E-02    2.93       1.0  T
   4    -91.8660914 -0.203175E-04  0.645E-03    2.93       2.1  T
   5    -91.8660936 -0.212918E-05  0.146E-03    2.93       9.1  T
   6    -91.8660936 -0.303941E-07  0.752E-04    2.93      17.6  T
   7    -91.8660936 -0.779050E-08  0.250E-04    2.93      52.9  T
     SCC iter.                  ...        0 min,  0.027 sec
     gradient                   ...        0 min,  0.045 sec
 * total energy  :   -90.5643888 Eh     change       -0.6349700E-03 Eh
   gradient norm :     0.0093506 Eh/α   predicted    -0.4824546E-03 ( -24.02%)
   displ. norm   :     0.3501868 α      lambda       -0.6099267E-03
   maximum displ.:     0.2453848 α      in ANC's #8, #6, #11, ...

........................................................................
.............................. CYCLE    6 ..............................
........................................................................

 iter      E             dE          RMSdq      gap      omega  full diag
   1    -91.8650022 -0.918650E+02  0.870E-02    2.94       0.0  T
   2    -91.8650293 -0.270328E-04  0.498E-02    2.95       1.0  T
   3    -91.8650189  0.103881E-04  0.233E-02    2.95       1.0  T
   4    -91.8650344 -0.155289E-04  0.568E-03    2.95       2.3  T
   5    -91.8650360 -0.161438E-05  0.140E-03    2.96       9.5  T
   6    -91.8650360 -0.238327E-07  0.708E-04    2.95      18.7  T
   7    -91.8650360 -0.773441E-08  0.234E-04    2.95      56.6  T
     SCC iter.                  ...        0 min,  0.027 sec
     gradient                   ...        0 min,  0.045 sec
 * total energy  :   -90.5648925 Eh     change       -0.5036224E-03 Eh
   gradient norm :     0.0100247 Eh/α   predicted    -0.3423665E-03 ( -32.02%)
   displ. norm   :     0.4467437 α      lambda       -0.7269374E-03
   maximum displ.:     0.2979334 α      in ANC's #8, #6, #11, ...

........................................................................
.............................. CYCLE    7 ..............................
........................................................................

 iter      E             dE          RMSdq      gap      omega  full diag
   1    -91.8642014 -0.918642E+02  0.109E-01    2.96       0.0  T
   2    -91.8642391 -0.377699E-04  0.620E-02    2.98       1.0  T
   3    -91.8642247  0.144313E-04  0.262E-02    2.98       1.0  T
   4    -91.8642449 -0.201898E-04  0.667E-03    2.99       2.0  T
   5    -91.8642470 -0.211771E-05  0.177E-03    2.99       7.5  T
   6    -91.8642470 -0.396993E-07  0.867E-04    2.99      15.3  T
   7    -91.8642471 -0.111257E-07  0.273E-04    2.98      48.6  T
     SCC iter.                  ...        0 min,  0.026 sec
     gradient                   ...        0 min,  0.046 sec
 * total energy  :   -90.5654978 Eh     change       -0.6053433E-03 Eh
   gradient norm :     0.0103893 Eh/α   predicted    -0.4360131E-03 ( -27.97%)
   displ. norm   :     0.5377037 α      lambda       -0.8007105E-03
   maximum displ.:     0.3493739 α      in ANC's #8, #6, #11, ...

........................................................................
.............................. CYCLE    8 ..............................
........................................................................

 iter      E             dE          RMSdq      gap      omega  full diag
   1    -91.8640837 -0.918641E+02  0.129E-01    2.99       0.0  T
   2    -91.8641333 -0.495777E-04  0.730E-02    3.01       1.0  T
   3    -91.8641157  0.176541E-04  0.285E-02    3.01       1.0  T
   4    -91.8641399 -0.242079E-04  0.761E-03    3.02       1.7  T
   5    -91.8641426 -0.268273E-05  0.209E-03    3.02       6.3  T
   6    -91.8641426 -0.588139E-07  0.101E-03    3.02      13.1  T
   7    -91.8641426 -0.140572E-07  0.301E-04    3.02      44.0  T
   8    -91.8641426 -0.164685E-08  0.151E-04    3.02      87.5  T
     SCC iter.                  ...        0 min,  0.040 sec
     gradient                   ...        0 min,  0.046 sec
 * total energy  :   -90.5661391 Eh     change       -0.6413327E-03 Eh
   gradient norm :     0.0112109 Eh/α   predicted    -0.5161093E-03 ( -19.53%)
   displ. norm   :     0.5361157 α      lambda       -0.7226360E-03
   maximum displ.:     0.3408607 α      in ANC's #8, #6, #7, ...

........................................................................
.............................. CYCLE    9 ..............................
........................................................................

 iter      E             dE          RMSdq      gap      omega  full diag
   1    -91.8659911 -0.918660E+02  0.127E-01    3.02       0.0  T
   2    -91.8660316 -0.405256E-04  0.720E-02    3.04       1.0  T
   3    -91.8660184  0.131941E-04  0.244E-02    3.04       1.0  T
   4    -91.8660362 -0.178177E-04  0.676E-03    3.05       2.0  T
   5    -91.8660383 -0.207505E-05  0.198E-03    3.05       6.7  T
   6    -91.8660384 -0.554845E-07  0.966E-04    3.05      13.7  T
   7    -91.8660384 -0.141207E-07  0.275E-04    3.05      48.2  T
     SCC iter.                  ...        0 min,  0.027 sec
     gradient                   ...        0 min,  0.045 sec
 * total energy  :   -90.5666975 Eh     change       -0.5583604E-03 Eh
   gradient norm :     0.0108077 Eh/α   predicted    -0.4651678E-03 ( -16.69%)
   displ. norm   :     0.4713989 α      lambda       -0.5547452E-03
   maximum displ.:     0.2860437 α      in ANC's #8, #6, #5, ...

........................................................................
.............................. CYCLE   10 ..............................
........................................................................

 iter      E             dE          RMSdq      gap      omega  full diag
   1    -91.8691046 -0.918691E+02  0.109E-01    3.05       0.0  T
   2    -91.8691292 -0.246665E-04  0.625E-02    3.06       1.0  T
   3    -91.8691217  0.750075E-05  0.182E-02    3.07       1.0  T
   4    -91.8691319 -0.101513E-04  0.519E-03    3.07       2.6  T
   5    -91.8691331 -0.121018E-05  0.161E-03    3.07       8.2  T
   6    -91.8691331 -0.353632E-07  0.790E-04    3.07      16.8  T
   7    -91.8691331 -0.997770E-08  0.223E-04    3.07      59.3  T
     SCC iter.                  ...        0 min,  0.027 sec
     gradient                   ...        0 min,  0.045 sec
 * total energy  :   -90.5671217 Eh     change       -0.4242312E-03 Eh
   gradient norm :     0.0083001 Eh/α   predicted    -0.3390100E-03 ( -20.09%)
   displ. norm   :     0.4711098 α      lambda       -0.3997842E-03
   maximum displ.:     0.2736274 α      in ANC's #8, #6, #5, ...

........................................................................
.............................. CYCLE   11 ..............................
........................................................................

 iter      E             dE          RMSdq      gap      omega  full diag
   1    -91.8695740 -0.918696E+02  0.107E-01    3.07       0.0  T
   2    -91.8695925 -0.185628E-04  0.614E-02    3.08       1.0  T
   3    -91.8695839  0.865725E-05  0.176E-02    3.08       1.0  T
   4    -91.8695950 -0.111159E-04  0.472E-03    3.09       2.8  T
   5    -91.8695960 -0.102800E-05  0.148E-03    3.09       8.9  T
   6    -91.8695961 -0.245108E-07  0.691E-04    3.09      19.2  T
   7    -91.8695961 -0.687285E-08  0.203E-04    3.09      65.2  T
     SCC iter.                  ...        0 min,  0.027 sec
     gradient                   ...        0 min,  0.043 sec
 * total energy  :   -90.5674108 Eh     change       -0.2891035E-03 Eh
   gradient norm :     0.0071054 Eh/α   predicted    -0.2442588E-03 ( -15.51%)
   displ. norm   :     0.3375231 α      lambda       -0.3064291E-03
   maximum displ.:     0.1541063 α      in ANC's #8, #5, #6, ...

........................................................................
.............................. CYCLE   12 ..............................
........................................................................

 iter      E             dE          RMSdq      gap      omega  full diag
   1    -91.8765237 -0.918765E+02  0.752E-02    3.11       0.0  T
   2    -91.8765314 -0.771014E-05  0.437E-02    3.11       1.0  T
   3    -91.8765254  0.597968E-05  0.126E-02    3.11       1.1  T
   4    -91.8765328 -0.741305E-05  0.315E-03    3.11       4.2  T
   5    -91.8765333 -0.432424E-06  0.108E-03    3.11      12.3  T
   6    -91.8765333 -0.879749E-08  0.507E-04    3.11      26.1  T
   7    -91.8765333 -0.435324E-08  0.139E-04    3.11      95.5  T
     SCC iter.                  ...        0 min,  0.027 sec
     gradient                   ...        0 min,  0.073 sec
 * total energy  :   -90.5675197 Eh     change       -0.1088914E-03 Eh
   gradient norm :     0.0080775 Eh/α   predicted    -0.1706868E-03 (  56.75%)
   displ. norm   :     0.4087987 α      lambda       -0.2638645E-03
   maximum displ.:     0.2335157 α      in ANC's #8, #6, #5, ...

........................................................................
.............................. CYCLE   13 ..............................
........................................................................

 iter      E             dE          RMSdq      gap      omega  full diag
   1    -91.8689949 -0.918690E+02  0.920E-02    3.09       0.0  T
   2    -91.8690144 -0.194998E-04  0.537E-02    3.10       1.0  T
   3    -91.8689967  0.176621E-04  0.226E-02    3.10       1.0  T
   4    -91.8690192 -0.225031E-04  0.476E-03    3.11       2.8  T
   5    -91.8690201 -0.920536E-06  0.144E-03    3.11       9.2  T
   6    -91.8690202 -0.200484E-07  0.706E-04    3.11      18.8  T
   7    -91.8690202 -0.407471E-08  0.222E-04    3.11      59.7  T
     SCC iter.                  ...        0 min,  0.027 sec
     gradient                   ...        0 min,  0.047 sec
 * total energy  :   -90.5676101 Eh     change       -0.9031844E-04 Eh
   gradient norm :     0.0085097 Eh/α   predicted    -0.1539807E-03 (  70.49%)
   displ. norm   :     0.0589209 α      lambda       -0.1326489E-03
   maximum displ.:     0.0312901 α      in ANC's #8, #7, #14, ...

........................................................................
.............................. CYCLE   14 ..............................
........................................................................

 iter      E             dE          RMSdq      gap      omega  full diag
   1    -91.8717710 -0.918718E+02  0.228E-02    3.12       0.0  T
   2    -91.8717749 -0.389097E-05  0.141E-02    3.11       1.0  T
   3    -91.8717742  0.718844E-06  0.642E-03    3.11       2.1  T
   4    -91.8717754 -0.120772E-05  0.253E-03    3.11       5.2  T
   5    -91.8717757 -0.235982E-06  0.510E-04    3.11      26.0  T
   6    -91.8717757 -0.370932E-08  0.267E-04    3.11      49.7  T
     SCC iter.                  ...        0 min,  0.023 sec
     gradient                   ...        0 min,  0.045 sec
 * total energy  :   -90.5676663 Eh     change       -0.5626987E-04 Eh
   gradient norm :     0.0050767 Eh/α   predicted    -0.6655572E-04 (  18.28%)
   displ. norm   :     0.0635944 α      lambda       -0.8953186E-04
   maximum displ.:     0.0291755 α      in ANC's #5, #2, #1, ...

........................................................................
.............................. CYCLE   15 ..............................
........................................................................

 iter      E             dE          RMSdq      gap      omega  full diag
   1    -91.8741312 -0.918741E+02  0.203E-02    3.11       0.0  T
   2    -91.8741315 -0.336953E-06  0.119E-02    3.11       1.1  T
   3    -91.8741312  0.262578E-06  0.274E-03    3.11       4.8  T
   4    -91.8741316 -0.330515E-06  0.665E-04    3.11      19.9  T
   5    -91.8741316 -0.160979E-07  0.287E-04    3.11      46.1  T
     SCC iter.                  ...        0 min,  0.023 sec
     gradient                   ...        0 min,  0.045 sec
 * total energy  :   -90.5677230 Eh     change       -0.5665654E-04 Eh
   gradient norm :     0.0027357 Eh/α   predicted    -0.4495060E-04 ( -20.66%)
   displ. norm   :     0.2314488 α      lambda       -0.7730736E-04
   maximum displ.:     0.1134251 α      in ANC's #5, #6, #8, ...

........................................................................
.............................. CYCLE   16 ..............................
........................................................................

 iter      E             dE          RMSdq      gap      omega  full diag
   1    -91.8737287 -0.918737E+02  0.444E-02    3.11       0.0  T
   2    -91.8737318 -0.313750E-05  0.256E-02    3.12       1.0  T
   3    -91.8737304  0.138127E-05  0.739E-03    3.11       1.8  T
   4    -91.8737323 -0.187504E-05  0.177E-03    3.11       7.5  T
   5    -91.8737324 -0.134471E-06  0.610E-04    3.11      21.7  T
   6    -91.8737324 -0.339990E-08  0.294E-04    3.11      45.1  T
     SCC iter.                  ...        0 min,  0.026 sec
     gradient                   ...        0 min,  0.046 sec
 * total energy  :   -90.5677798 Eh     change       -0.5681372E-04 Eh
   gradient norm :     0.0034736 Eh/α   predicted    -0.4073036E-04 ( -28.31%)
   displ. norm   :     0.3053876 α      lambda       -0.9088332E-04
   maximum displ.:     0.1568409 α      in ANC's #5, #6, #2, ...

........................................................................
.............................. CYCLE   17 ..............................
........................................................................

 iter      E             dE          RMSdq      gap      omega  full diag
   1    -91.8726597 -0.918727E+02  0.586E-02    3.10       0.0  T
   2    -91.8726643 -0.462972E-05  0.343E-02    3.11       1.0  T
   3    -91.8726574  0.695306E-05  0.131E-02    3.11       1.0  T
   4    -91.8726658 -0.843708E-05  0.230E-03    3.11       5.8  T
   5    -91.8726660 -0.181392E-06  0.818E-04    3.11      16.2  T
   6    -91.8726660 -0.536460E-08  0.399E-04    3.11      33.2  T
     SCC iter.                  ...        0 min,  0.023 sec
     gradient                   ...        0 min,  0.050 sec
 * total energy  :   -90.5678311 Eh     change       -0.5127063E-04 Eh
   gradient norm :     0.0047165 Eh/α   predicted    -0.4968318E-04 (  -3.10%)
   displ. norm   :     0.2404075 α      lambda       -0.7302856E-04
   maximum displ.:     0.1243526 α      in ANC's #5, #6, #2, ...

........................................................................
.............................. CYCLE   18 ..............................
........................................................................

 iter      E             dE          RMSdq      gap      omega  full diag
   1    -91.8728439 -0.918728E+02  0.434E-02    3.11       0.0  T
   2    -91.8728467 -0.285662E-05  0.251E-02    3.11       1.0  T
   3    -91.8728460  0.697477E-06  0.586E-03    3.11       2.3  T
   4    -91.8728471 -0.108926E-05  0.124E-03    3.11      10.7  T
   5    -91.8728472 -0.499125E-07  0.547E-04    3.11      24.2  T
   6    -91.8728472 -0.327510E-08  0.247E-04    3.11      53.7  T
     SCC iter.                  ...        0 min,  0.023 sec
     gradient                   ...        0 min,  0.067 sec
 * total energy  :   -90.5678839 Eh     change       -0.5287658E-04 Eh
   gradient norm :     0.0041790 Eh/α   predicted    -0.3862507E-04 ( -26.95%)
   displ. norm   :     0.2719172 α      lambda       -0.9220980E-04
   maximum displ.:     0.1453670 α      in ANC's #5, #2, #1, ...

........................................................................
.............................. CYCLE   19 ..............................
........................................................................

 iter      E             dE          RMSdq      gap      omega  full diag
   1    -91.8741274 -0.918741E+02  0.476E-02    3.12       0.0  T
   2    -91.8741298 -0.244386E-05  0.277E-02    3.12       1.0  T
   3    -91.8741294  0.439429E-06  0.441E-03    3.12       3.0  T
   4    -91.8741301 -0.766311E-06  0.989E-04    3.12      13.4  T
   5    -91.8741302 -0.221592E-07  0.531E-04    3.12      24.9  T
     SCC iter.                  ...        0 min,  0.019 sec
     gradient                   ...        0 min,  0.067 sec
 * total energy  :   -90.5679558 Eh     change       -0.7186101E-04 Eh
   gradient norm :     0.0057933 Eh/α   predicted    -0.4951604E-04 ( -31.09%)
   displ. norm   :     0.4413925 α      lambda       -0.1413982E-03
   maximum displ.:     0.2297740 α      in ANC's #5, #2, #1, ...

........................................................................
.............................. CYCLE   20 ..............................
........................................................................

 iter      E             dE          RMSdq      gap      omega  full diag
   1    -91.8740298 -0.918740E+02  0.792E-02    3.12       0.0  T
   2    -91.8740325 -0.265485E-05  0.462E-02    3.12       1.0  T
   3    -91.8740322  0.256463E-06  0.423E-03    3.13       3.1  T
   4    -91.8740329 -0.685032E-06  0.180E-03    3.12       7.4  T
   5    -91.8740330 -0.919177E-07  0.810E-04    3.12      16.4  T
   6    -91.8740330 -0.611094E-08  0.273E-04    3.12      48.5  T
     SCC iter.                  ...        0 min,  0.023 sec
     gradient                   ...        0 min,  0.052 sec
 * total energy  :   -90.5680553 Eh     change       -0.9951879E-04 Eh
   gradient norm :     0.0059051 Eh/α   predicted    -0.8447762E-04 ( -15.11%)
   displ. norm   :     0.3868160 α      lambda       -0.1575903E-03
   maximum displ.:     0.1914226 α      in ANC's #1, #5, #2, ...
 * RMSD in coord.:     0.7087156 α      energy gain  -0.1730082E-01 Eh

generating ANC from exact Hessian ...
Using Lindh-Hessian (1995)
 Shifting diagonal of input Hessian by    9.8329819339755230E-003
 Lowest  eigenvalues of input Hessian
    0.000000    0.000000    0.000000    0.000000    0.000000    0.000000
    0.010000    0.010151    0.010231    0.010492    0.010747    0.011009
    0.011164    0.011783    0.012254    0.012894    0.014208    0.015457
 Highest eigenvalues
    2.117368    2.124208    2.198996    2.232453    2.293676    2.450164


........................................................................
.............................. CYCLE   21 ..............................
........................................................................

 iter      E             dE          RMSdq      gap      omega  full diag
   1    -91.8744997 -0.918745E+02  0.706E-02    3.12       0.0  T
   2    -91.8745023 -0.261120E-05  0.413E-02    3.13       1.0  T
   3    -91.8745009  0.135535E-05  0.603E-03    3.13       2.2  T
   4    -91.8745027 -0.181109E-05  0.199E-03    3.13       6.6  T
   5    -91.8745029 -0.147073E-06  0.851E-04    3.13      15.6  T
   6    -91.8745029 -0.446485E-08  0.224E-04    3.13      59.2  T
     SCC iter.                  ...        0 min,  0.039 sec
     gradient                   ...        0 min,  0.046 sec
 * total energy  :   -90.5681518 Eh     change       -0.9649567E-04 Eh
   gradient norm :     0.0077756 Eh/α   predicted     0.0000000E+00 (-100.00%)
   displ. norm   :     0.0646232 α      lambda       -0.9154911E-04
   maximum displ.:     0.0253527 α      in ANC's #2, #11, #6, ...

........................................................................
.............................. CYCLE   22 ..............................
........................................................................

 iter      E             dE          RMSdq      gap      omega  full diag
   1    -91.8738780 -0.918739E+02  0.193E-02    3.13       0.0  T
   2    -91.8738799 -0.181261E-05  0.120E-02    3.13       1.1  T
   3    -91.8738791  0.774330E-06  0.480E-03    3.13       2.8  T
   4    -91.8738801 -0.104342E-05  0.162E-03    3.13       8.2  T
   5    -91.8738802 -0.109327E-06  0.385E-04    3.13      34.4  T
   6    -91.8738802 -0.131128E-08  0.197E-04    3.13      67.1  T
     SCC iter.                  ...        0 min,  0.044 sec
     gradient                   ...        0 min,  0.046 sec
 * total energy  :   -90.5682573 Eh     change       -0.1054365E-03 Eh
   gradient norm :     0.0028624 Eh/α   predicted    -0.6806119E-04 ( -35.45%)
   displ. norm   :     0.1547361 α      lambda       -0.1669908E-03
   maximum displ.:     0.0684357 α      in ANC's #2, #11, #6, ...

........................................................................
.............................. CYCLE   23 ..............................
........................................................................

 iter      E             dE          RMSdq      gap      omega  full diag
   1    -91.8733943 -0.918734E+02  0.379E-02    3.14       0.0  T
   2    -91.8733969 -0.265710E-05  0.224E-02    3.14       1.0  T
   3    -91.8733946  0.233365E-05  0.711E-03    3.14       1.9  T
   4    -91.8733975 -0.290705E-05  0.187E-03    3.14       7.1  T
   5    -91.8733976 -0.111917E-06  0.676E-04    3.14      19.6  T
   6    -91.8733976 -0.242359E-08  0.302E-04    3.14      43.8  T
     SCC iter.                  ...        0 min,  0.040 sec
     gradient                   ...        0 min,  0.046 sec
 * total energy  :   -90.5683705 Eh     change       -0.1132433E-03 Eh
   gradient norm :     0.0051424 Eh/α   predicted    -0.8549573E-04 ( -24.50%)
   displ. norm   :     0.1629259 α      lambda       -0.1028876E-03
   maximum displ.:     0.0786110 α      in ANC's #2, #11, #1, ...

........................................................................
.............................. CYCLE   24 ..............................
........................................................................

 iter      E             dE          RMSdq      gap      omega  full diag
   1    -91.8734159 -0.918734E+02  0.346E-02    3.15       0.0  T
   2    -91.8734177 -0.179804E-05  0.198E-02    3.15       1.0  T
   3    -91.8734169  0.842745E-06  0.532E-03    3.15       2.5  T
   4    -91.8734181 -0.123587E-05  0.153E-03    3.15       8.7  T
   5    -91.8734182 -0.723790E-07  0.653E-04    3.15      20.3  T
   6    -91.8734182 -0.366234E-08  0.239E-04    3.15      55.3  T
     SCC iter.                  ...        0 min,  0.032 sec
     gradient                   ...        0 min,  0.045 sec
 * total energy  :   -90.5684557 Eh     change       -0.8516259E-04 Eh
   gradient norm :     0.0068568 Eh/α   predicted    -0.5312456E-04 ( -37.62%)
   displ. norm   :     0.3295637 α      lambda       -0.2038547E-03
   maximum displ.:     0.1621133 α      in ANC's #2, #11, #1, ...

........................................................................
.............................. CYCLE   25 ..............................
........................................................................

 iter      E             dE          RMSdq      gap      omega  full diag
   1    -91.8734588 -0.918735E+02  0.649E-02    3.17       0.0  T
   2    -91.8734667 -0.792417E-05  0.368E-02    3.18       1.0  T
   3    -91.8734647  0.206352E-05  0.102E-02    3.18       1.3  T
   4    -91.8734683 -0.364829E-05  0.284E-03    3.18       4.7  T
   5    -91.8734686 -0.248553E-06  0.131E-03    3.18      10.1  T
   6    -91.8734686 -0.196230E-07  0.420E-04    3.18      31.5  T
   7    -91.8734686 -0.379065E-08  0.150E-04    3.18      88.6  T
     SCC iter.                  ...        0 min,  0.027 sec
     gradient                   ...        0 min,  0.049 sec
 * total energy  :   -90.5686181 Eh     change       -0.1624006E-03 Eh
   gradient norm :     0.0072331 Eh/α   predicted    -0.1129985E-03 ( -30.42%)
   displ. norm   :     0.4138980 α      lambda       -0.2552628E-03
   maximum displ.:     0.2093954 α      in ANC's #2, #1, #11, ...

........................................................................
.............................. CYCLE   26 ..............................
........................................................................

 iter      E             dE          RMSdq      gap      omega  full diag
   1    -91.8733395 -0.918733E+02  0.764E-02    3.20       0.0  T
   2    -91.8733510 -0.114953E-04  0.433E-02    3.21       1.0  T
   3    -91.8733486  0.236352E-05  0.119E-02    3.22       1.1  T
   4    -91.8733532 -0.464307E-05  0.321E-03    3.22       4.1  T
   5    -91.8733535 -0.288365E-06  0.158E-03    3.22       8.4  T
   6    -91.8733536 -0.318638E-07  0.468E-04    3.22      28.3  T
   7    -91.8733536 -0.529975E-08  0.168E-04    3.22      78.9  T
     SCC iter.                  ...        0 min,  0.027 sec
     gradient                   ...        0 min,  0.046 sec
 * total energy  :   -90.5688130 Eh     change       -0.1949089E-03 Eh
   gradient norm :     0.0080149 Eh/α   predicted    -0.1495005E-03 ( -23.30%)
   displ. norm   :     0.3766664 α      lambda       -0.3123992E-03
   maximum displ.:     0.1960727 α      in ANC's #2, #1, #9, ...

........................................................................
.............................. CYCLE   27 ..............................
........................................................................

 iter      E             dE          RMSdq      gap      omega  full diag
   1    -91.8744496 -0.918744E+02  0.657E-02    3.23       0.0  T
   2    -91.8744602 -0.105937E-04  0.376E-02    3.24       1.0  T
   3    -91.8744589  0.125729E-05  0.105E-02    3.24       1.3  T
   4    -91.8744620 -0.308297E-05  0.248E-03    3.24       5.3  T
   5    -91.8744622 -0.136211E-06  0.131E-03    3.24      10.1  T
   6    -91.8744622 -0.242429E-07  0.417E-04    3.24      31.8  T
   7    -91.8744622 -0.470564E-08  0.137E-04    3.24      96.4  T
     SCC iter.                  ...        0 min,  0.027 sec
     gradient                   ...        0 min,  0.045 sec
 * total energy  :   -90.5690572 Eh     change       -0.2442725E-03 Eh
   gradient norm :     0.0098206 Eh/α   predicted    -0.1783827E-03 ( -26.97%)
   displ. norm   :     0.4012681 α      lambda       -0.4010687E-03
   maximum displ.:     0.2081075 α      in ANC's #2, #1, #9, ...

........................................................................
.............................. CYCLE   28 ..............................
........................................................................

 iter      E             dE          RMSdq      gap      omega  full diag
   1    -91.8756659 -0.918757E+02  0.683E-02    3.25       0.0  T
   2    -91.8756724 -0.651024E-05  0.394E-02    3.26       1.0  T
   3    -91.8756705  0.194454E-05  0.951E-03    3.26       1.4  T
   4    -91.8756736 -0.315582E-05  0.267E-03    3.26       5.0  T
   5    -91.8756739 -0.220146E-06  0.121E-03    3.26      10.9  T
   6    -91.8756739 -0.139664E-07  0.399E-04    3.26      33.2  T
   7    -91.8756739 -0.434471E-08  0.124E-04    3.26     107.0  T
     SCC iter.                  ...        0 min,  0.027 sec
     gradient                   ...        0 min,  0.046 sec
 * total energy  :   -90.5693762 Eh     change       -0.3189248E-03 Eh
   gradient norm :     0.0115894 Eh/α   predicted    -0.2328236E-03 ( -27.00%)
   displ. norm   :     0.6023757 α      lambda       -0.4972597E-03
   maximum displ.:     0.3125994 α      in ANC's #2, #1, #9, ...

........................................................................
.............................. CYCLE   29 ..............................
........................................................................

 iter      E             dE          RMSdq      gap      omega  full diag
   1    -91.8725275 -0.918725E+02  0.994E-02    3.26       0.0  T
   2    -91.8725339 -0.632607E-05  0.573E-02    3.26       1.0  T
   3    -91.8725276  0.631910E-05  0.127E-02    3.26       1.0  T
   4    -91.8725363 -0.871104E-05  0.331E-03    3.26       4.0  T
   5    -91.8725364 -0.166778E-06  0.152E-03    3.26       8.7  T
   6    -91.8725364 -0.927155E-08  0.514E-04    3.26      25.8  T
   7    -91.8725365 -0.930508E-08  0.149E-04    3.26      89.1  T
     SCC iter.                  ...        0 min,  0.027 sec
     gradient                   ...        0 min,  0.046 sec
 * total energy  :   -90.5697277 Eh     change       -0.3515399E-03 Eh
   gradient norm :     0.0145740 Eh/α   predicted    -0.3388491E-03 (  -3.61%)
   displ. norm   :     0.4566208 α      lambda       -0.1019040E-02
   maximum displ.:     0.1927958 α      in ANC's #9, #2, #1, ...

........................................................................
.............................. CYCLE   30 ..............................
........................................................................

 iter      E             dE          RMSdq      gap      omega  full diag
   1    -91.8773870 -0.918774E+02  0.857E-02    3.25       0.0  T
   2    -91.8773935 -0.646235E-05  0.506E-02    3.25       1.0  T
   3    -91.8773912  0.227561E-05  0.857E-03    3.25       1.5  T
   4    -91.8773945 -0.322932E-05  0.322E-03    3.25       4.1  T
   5    -91.8773948 -0.341977E-06  0.130E-03    3.25      10.2  T
   6    -91.8773948 -0.246769E-08  0.562E-04    3.25      23.6  T
   7    -91.8773948 -0.876922E-08  0.124E-04    3.25     106.4  T
     SCC iter.                  ...        0 min,  0.027 sec
     gradient                   ...        0 min,  0.045 sec
 * total energy  :   -90.5699664 Eh     change       -0.2387182E-03 Eh
   gradient norm :     0.0160287 Eh/α   predicted    -0.6158323E-03 ( 157.97%)
   displ. norm   :     0.4150858 α      lambda       -0.7384363E-03
   maximum displ.:     0.2289595 α      in ANC's #2, #1, #9, ...

........................................................................
.............................. CYCLE   31 ..............................
........................................................................

 iter      E             dE          RMSdq      gap      omega  full diag
   1    -91.8729858 -0.918730E+02  0.712E-02    3.25       0.0  T
   2    -91.8729941 -0.829743E-05  0.411E-02    3.25       1.0  T
   3    -91.8729940  0.135233E-06  0.724E-03    3.25       1.8  T
   4    -91.8729954 -0.145995E-05  0.267E-03    3.25       5.0  T
   5    -91.8729956 -0.146318E-06  0.142E-03    3.25       9.3  T
   6    -91.8729956 -0.228173E-07  0.434E-04    3.25      30.5  T
   7    -91.8729956 -0.523582E-08  0.123E-04    3.25     107.6  T
     SCC iter.                  ...        0 min,  0.027 sec
     gradient                   ...        0 min,  0.073 sec
 * total energy  :   -90.5704104 Eh     change       -0.4439789E-03 Eh
   gradient norm :     0.0097681 Eh/α   predicted    -0.4328675E-03 (  -2.50%)
   displ. norm   :     0.1335636 α      lambda       -0.3447508E-03
   maximum displ.:     0.0684885 α      in ANC's #2, #1, #20, ...

........................................................................
.............................. CYCLE   32 ..............................
........................................................................

 iter      E             dE          RMSdq      gap      omega  full diag
   1    -91.8758765 -0.918759E+02  0.342E-02    3.26       0.0  T
   2    -91.8758791 -0.252035E-05  0.199E-02    3.26       1.0  T
   3    -91.8758785  0.579975E-06  0.571E-03    3.26       2.3  T
   4    -91.8758794 -0.958899E-06  0.158E-03    3.26       8.4  T
   5    -91.8758795 -0.879817E-07  0.687E-04    3.26      19.3  T
   6    -91.8758795 -0.523575E-08  0.240E-04    3.26      55.3  T
     SCC iter.                  ...        0 min,  0.023 sec
     gradient                   ...        0 min,  0.072 sec
 * total energy  :   -90.5706073 Eh     change       -0.1968902E-03 Eh
   gradient norm :     0.0072434 Eh/α   predicted    -0.1754588E-03 ( -10.88%)
   displ. norm   :     0.4460205 α      lambda       -0.3960673E-03
   maximum displ.:     0.2470215 α      in ANC's #2, #1, #9, ...

........................................................................
.............................. CYCLE   33 ..............................
........................................................................

 iter      E             dE          RMSdq      gap      omega  full diag
   1    -91.8750697 -0.918751E+02  0.701E-02    3.26       0.0  T
   2    -91.8750731 -0.338380E-05  0.404E-02    3.26       1.0  T
   3    -91.8750698  0.327508E-05  0.931E-03    3.26       1.4  T
   4    -91.8750741 -0.435795E-05  0.228E-03    3.26       5.8  T
   5    -91.8750743 -0.103199E-06  0.108E-03    3.26      12.3  T
   6    -91.8750743 -0.807835E-08  0.282E-04    3.26      47.0  T
   7    -91.8750743 -0.162143E-08  0.881E-05    3.26     150.4  T
     SCC iter.                  ...        0 min,  0.027 sec
     gradient                   ...        0 min,  0.073 sec
 * total energy  :   -90.5708794 Eh     change       -0.2720839E-03 Eh
   gradient norm :     0.0097442 Eh/α   predicted    -0.2374341E-03 ( -12.73%)
   displ. norm   :     0.3124698 α      lambda       -0.4078896E-03
   maximum displ.:     0.1508110 α      in ANC's #2, #1, #5, ...

........................................................................
.............................. CYCLE   34 ..............................
........................................................................

 iter      E             dE          RMSdq      gap      omega  full diag
   1    -91.8774218 -0.918774E+02  0.542E-02    3.27       0.0  T
   2    -91.8774237 -0.188856E-05  0.319E-02    3.27       1.0  T
   3    -91.8774207  0.307165E-05  0.850E-03    3.27       1.6  T
   4    -91.8774243 -0.367960E-05  0.175E-03    3.27       7.6  T
   5    -91.8774244 -0.948034E-07  0.745E-04    3.27      17.8  T
   6    -91.8774244 -0.181748E-08  0.232E-04    3.27      57.2  T
     SCC iter.                  ...        0 min,  0.059 sec
     gradient                   ...        0 min,  0.047 sec
 * total energy  :   -90.5711314 Eh     change       -0.2520018E-03 Eh
   gradient norm :     0.0081654 Eh/α   predicted    -0.2238579E-03 ( -11.17%)
   displ. norm   :     0.5057410 α      lambda       -0.3282005E-03
   maximum displ.:     0.2950937 α      in ANC's #2, #1, #9, ...

........................................................................
.............................. CYCLE   35 ..............................
........................................................................

 iter      E             dE          RMSdq      gap      omega  full diag
   1    -91.8745939 -0.918746E+02  0.696E-02    3.27       0.0  T
   2    -91.8745983 -0.446588E-05  0.402E-02    3.27       1.0  T
   3    -91.8745965  0.184385E-05  0.813E-03    3.27       1.6  T
   4    -91.8745993 -0.283458E-05  0.235E-03    3.27       5.6  T
   5    -91.8745995 -0.128327E-06  0.116E-03    3.27      11.4  T
   6    -91.8745995 -0.157578E-07  0.399E-04    3.27      33.2  T
   7    -91.8745995 -0.542818E-08  0.105E-04    3.27     126.3  T
     SCC iter.                  ...        0 min,  0.057 sec
     gradient                   ...        0 min,  0.079 sec
 * total energy  :   -90.5713667 Eh     change       -0.2352835E-03 Eh
   gradient norm :     0.0085191 Eh/α   predicted    -0.2060759E-03 ( -12.41%)
   displ. norm   :     0.3942497 α      lambda       -0.4029745E-03
   maximum displ.:     0.2278253 α      in ANC's #2, #1, #5, ...

........................................................................
.............................. CYCLE   36 ..............................
........................................................................

 iter      E             dE          RMSdq      gap      omega  full diag
   1    -91.8767713 -0.918768E+02  0.577E-02    3.27       0.0  T
   2    -91.8767748 -0.350612E-05  0.333E-02    3.27       1.0  T
   3    -91.8767741  0.720462E-06  0.576E-03    3.27       2.3  T
   4    -91.8767753 -0.120046E-05  0.207E-03    3.27       6.4  T
   5    -91.8767755 -0.132129E-06  0.839E-04    3.27      15.8  T
   6    -91.8767755 -0.123316E-08  0.322E-04    3.27      41.1  T
     SCC iter.                  ...        0 min,  0.023 sec
     gradient                   ...        0 min,  0.087 sec
 * total energy  :   -90.5716370 Eh     change       -0.2703676E-03 Eh
   gradient norm :     0.0067385 Eh/α   predicted    -0.2328131E-03 ( -13.89%)
   displ. norm   :     0.5557683 α      lambda       -0.3522242E-03
   maximum displ.:     0.3207685 α      in ANC's #2, #1, #5, ...

........................................................................
.............................. CYCLE   37 ..............................
........................................................................

 iter      E             dE          RMSdq      gap      omega  full diag
   1    -91.8752477 -0.918752E+02  0.799E-02    3.27       0.0  T
   2    -91.8752521 -0.437561E-05  0.462E-02    3.27       1.0  T
   3    -91.8752511  0.998609E-06  0.697E-03    3.27       1.9  T
   4    -91.8752531 -0.198583E-05  0.241E-03    3.27       5.5  T
   5    -91.8752532 -0.114368E-06  0.114E-03    3.27      11.6  T
   6    -91.8752532 -0.154484E-07  0.351E-04    3.27      37.7  T
   7    -91.8752532 -0.456771E-08  0.116E-04    3.27     113.7  T
     SCC iter.                  ...        0 min,  0.059 sec
     gradient                   ...        0 min,  0.045 sec
 * total energy  :   -90.5718758 Eh     change       -0.2387364E-03 Eh
   gradient norm :     0.0084364 Eh/α   predicted    -0.2305122E-03 (  -3.44%)
   displ. norm   :     0.3423721 α      lambda       -0.3467486E-03
   maximum displ.:     0.1773367 α      in ANC's #1, #2, #6, ...

........................................................................
.............................. CYCLE   38 ..............................
........................................................................

 iter      E             dE          RMSdq      gap      omega  full diag
   1    -91.8781236 -0.918781E+02  0.609E-02    3.26       0.0  T
   2    -91.8781272 -0.352350E-05  0.354E-02    3.26       1.0  T
   3    -91.8781261  0.107710E-05  0.675E-03    3.27       2.0  T
   4    -91.8781276 -0.151866E-05  0.238E-03    3.27       5.6  T
   5    -91.8781278 -0.204389E-06  0.859E-04    3.27      15.4  T
   6    -91.8781278 -0.277358E-08  0.331E-04    3.27      40.0  T
     SCC iter.                  ...        0 min,  0.058 sec
     gradient                   ...        0 min,  0.088 sec
 * total energy  :   -90.5720822 Eh     change       -0.2064371E-03 Eh
   gradient norm :     0.0073876 Eh/α   predicted    -0.1936998E-03 (  -6.17%)
   displ. norm   :     0.5085213 α      lambda       -0.2629853E-03
   maximum displ.:     0.3045267 α      in ANC's #2, #1, #5, ...

........................................................................
.............................. CYCLE   39 ..............................
........................................................................

 iter      E             dE          RMSdq      gap      omega  full diag
   1    -91.8759153 -0.918759E+02  0.721E-02    3.26       0.0  T
   2    -91.8759194 -0.400965E-05  0.419E-02    3.26       1.0  T
   3    -91.8759155  0.382111E-05  0.100E-02    3.26       1.3  T
   4    -91.8759203 -0.479259E-05  0.232E-03    3.26       5.7  T
   5    -91.8759205 -0.177304E-06  0.103E-03    3.26      12.9  T
   6    -91.8759205 -0.832739E-08  0.343E-04    3.26      38.6  T
   7    -91.8759205 -0.281354E-08  0.799E-05    3.26     165.8  T
     SCC iter.                  ...        0 min,  0.027 sec
     gradient                   ...        0 min,  0.073 sec
 * total energy  :   -90.5722730 Eh     change       -0.1907688E-03 Eh
   gradient norm :     0.0074051 Eh/α   predicted    -0.1654986E-03 ( -13.25%)
   displ. norm   :     0.3903917 α      lambda       -0.3110683E-03
   maximum displ.:     0.2249298 α      in ANC's #2, #1, #6, ...

........................................................................
.............................. CYCLE   40 ..............................
........................................................................

 iter      E             dE          RMSdq      gap      omega  full diag
   1    -91.8776305 -0.918776E+02  0.590E-02    3.26       0.0  T
   2    -91.8776332 -0.269571E-05  0.347E-02    3.26       1.0  T
   3    -91.8776322  0.955254E-06  0.577E-03    3.26       2.3  T
   4    -91.8776336 -0.142935E-05  0.168E-03    3.26       7.9  T
   5    -91.8776337 -0.827273E-07  0.804E-04    3.26      16.5  T
   6    -91.8776337 -0.736512E-08  0.277E-04    3.26      47.8  T
     SCC iter.                  ...        0 min,  0.023 sec
     gradient                   ...        0 min,  0.080 sec
 * total energy  :   -90.5724862 Eh     change       -0.2131939E-03 Eh
   gradient norm :     0.0058818 Eh/α   predicted    -0.1792408E-03 ( -15.93%)
   displ. norm   :     0.5447485 α      lambda       -0.2810310E-03
   maximum displ.:     0.3128510 α      in ANC's #2, #1, #6, ...

........................................................................
.............................. CYCLE   41 ..............................
........................................................................

 iter      E             dE          RMSdq      gap      omega  full diag
   1    -91.8758759 -0.918759E+02  0.764E-02    3.25       0.0  T
   2    -91.8758798 -0.394105E-05  0.446E-02    3.25       1.0  T
   3    -91.8758773  0.256083E-05  0.876E-03    3.25       1.5  T
   4    -91.8758807 -0.341487E-05  0.239E-03    3.25       5.5  T
   5    -91.8758809 -0.159298E-06  0.109E-03    3.25      12.1  T
   6    -91.8758809 -0.954050E-08  0.392E-04    3.25      33.8  T
   7    -91.8758809 -0.488571E-08  0.112E-04    3.25     118.0  T
     SCC iter.                  ...        0 min,  0.067 sec
     gradient                   ...        0 min,  0.043 sec
 * total energy  :   -90.5726798 Eh     change       -0.1936499E-03 Eh
   gradient norm :     0.0078598 Eh/α   predicted    -0.1822170E-03 (  -5.90%)
   displ. norm   :     0.3532223 α      lambda       -0.3249696E-03
   maximum displ.:     0.1889058 α      in ANC's #1, #2, #6, ...

........................................................................
.............................. CYCLE   42 ..............................
........................................................................

 iter      E             dE          RMSdq      gap      omega  full diag
   1    -91.8799791 -0.918800E+02  0.600E-02    3.24       0.0  T
   2    -91.8799859 -0.686023E-05  0.353E-02    3.24       1.0  T
   3    -91.8799823  0.367050E-05  0.118E-02    3.24       1.1  T
   4    -91.8799872 -0.488232E-05  0.287E-03    3.24       4.6  T
   5    -91.8799875 -0.342698E-06  0.948E-04    3.24      14.0  T
   6    -91.8799875 -0.710146E-08  0.474E-04    3.24      28.0  T
     SCC iter.                  ...        0 min,  0.044 sec
     gradient                   ...        0 min,  0.046 sec
 * total energy  :   -90.5728596 Eh     change       -0.1798176E-03 Eh
   gradient norm :     0.0088061 Eh/α   predicted    -0.1827627E-03 (   1.64%)
   displ. norm   :     0.5374401 α      lambda       -0.2770153E-03
   maximum displ.:     0.3203626 α      in ANC's #2, #1, #6, ...
 * RMSD in coord.:     0.9557031 α      energy gain  -0.4804313E-02 Eh

generating ANC from exact Hessian ...
Using Lindh-Hessian (1995)
 Shifting diagonal of input Hessian by    9.8142642782111343E-003
 Lowest  eigenvalues of input Hessian
    0.000000    0.000000    0.000000    0.000000    0.000000    0.000000
    0.010000    0.010134    0.010249    0.010514    0.010802    0.011075
    0.011422    0.012025    0.012311    0.013239    0.014211    0.015561
 Highest eigenvalues
    2.117252    2.133704    2.203529    2.235449    2.296628    2.440706


........................................................................
.............................. CYCLE   43 ..............................
........................................................................

 iter      E             dE          RMSdq      gap      omega  full diag
   1    -91.8779604 -0.918780E+02  0.746E-02    3.24       0.0  T
   2    -91.8779632 -0.283925E-05  0.436E-02    3.24       1.0  T
   3    -91.8779629  0.332249E-06  0.496E-03    3.24       2.7  T
   4    -91.8779638 -0.879794E-06  0.189E-03    3.24       7.0  T
   5    -91.8779639 -0.890259E-07  0.940E-04    3.24      14.1  T
   6    -91.8779639 -0.644819E-08  0.301E-04    3.24      44.0  T
     SCC iter.                  ...        0 min,  0.068 sec
     gradient                   ...        0 min,  0.045 sec
 * total energy  :   -90.5730501 Eh     change       -0.1904579E-03 Eh
   gradient norm :     0.0081240 Eh/α   predicted     0.0000000E+00 (-100.00%)
   displ. norm   :     0.0717393 α      lambda       -0.1811109E-03
   maximum displ.:     0.0316654 α      in ANC's #15, #2, #9, ...

........................................................................
.............................. CYCLE   44 ..............................
........................................................................

 iter      E             dE          RMSdq      gap      omega  full diag
   1    -91.8799672 -0.918800E+02  0.199E-02    3.25       0.0  T
   2    -91.8799683 -0.111170E-05  0.114E-02    3.25       1.2  T
   3    -91.8799679  0.449101E-06  0.470E-03    3.25       2.8  T
   4    -91.8799685 -0.615430E-06  0.124E-03    3.25      10.7  T
   5    -91.8799686 -0.596947E-07  0.379E-04    3.25      34.9  T
   6    -91.8799686 -0.966168E-09  0.194E-04    3.25      68.2  T
     SCC iter.                  ...        0 min,  0.038 sec
     gradient                   ...        0 min,  0.046 sec
 * total energy  :   -90.5731932 Eh     change       -0.1431408E-03 Eh
   gradient norm :     0.0036449 Eh/α   predicted    -0.9242669E-04 ( -35.43%)
   displ. norm   :     0.1753556 α      lambda       -0.2277332E-03
   maximum displ.:     0.0823119 α      in ANC's #15, #2, #9, ...

........................................................................
.............................. CYCLE   45 ..............................
........................................................................

 iter      E             dE          RMSdq      gap      omega  full diag
   1    -91.8814041 -0.918814E+02  0.387E-02    3.25       0.0  T
   2    -91.8814065 -0.243804E-05  0.226E-02    3.25       1.0  T
   3    -91.8814046  0.193203E-05  0.799E-03    3.25       1.7  T
   4    -91.8814069 -0.236446E-05  0.192E-03    3.25       6.9  T
   5    -91.8814071 -0.151524E-06  0.547E-04    3.25      24.2  T
   6    -91.8814071 -0.131062E-08  0.254E-04    3.25      52.2  T
     SCC iter.                  ...        0 min,  0.023 sec
     gradient                   ...        0 min,  0.042 sec
 * total energy  :   -90.5733560 Eh     change       -0.1627235E-03 Eh
   gradient norm :     0.0033433 Eh/α   predicted    -0.1173698E-03 ( -27.87%)
   displ. norm   :     0.2357241 α      lambda       -0.1824827E-03
   maximum displ.:     0.1179844 α      in ANC's #15, #2, #9, ...

........................................................................
.............................. CYCLE   46 ..............................
........................................................................

 iter      E             dE          RMSdq      gap      omega  full diag
   1    -91.8807521 -0.918808E+02  0.458E-02    3.25       0.0  T
   2    -91.8807535 -0.147535E-05  0.268E-02    3.25       1.0  T
   3    -91.8807525  0.104959E-05  0.557E-03    3.25       2.4  T
   4    -91.8807538 -0.131071E-05  0.159E-03    3.25       8.3  T
   5    -91.8807539 -0.929504E-07  0.580E-04    3.25      22.8  T
   6    -91.8807539 -0.104453E-08  0.198E-04    3.25      66.9  T
     SCC iter.                  ...        0 min,  0.023 sec
     gradient                   ...        0 min,  0.045 sec
 * total energy  :   -90.5734995 Eh     change       -0.1435658E-03 Eh
   gradient norm :     0.0057101 Eh/α   predicted    -0.9631754E-04 ( -32.91%)
   displ. norm   :     0.3399733 α      lambda       -0.2121537E-03
   maximum displ.:     0.1740846 α      in ANC's #15, #2, #9, ...

........................................................................
.............................. CYCLE   47 ..............................
........................................................................

 iter      E             dE          RMSdq      gap      omega  full diag
   1    -91.8780889 -0.918781E+02  0.611E-02    3.24       0.0  T
   2    -91.8780913 -0.240973E-05  0.358E-02    3.25       1.0  T
   3    -91.8780909  0.338307E-06  0.456E-03    3.25       2.9  T
   4    -91.8780917 -0.730630E-06  0.158E-03    3.25       8.4  T
   5    -91.8780917 -0.604305E-07  0.738E-04    3.25      18.0  T
   6    -91.8780917 -0.168380E-08  0.259E-04    3.25      51.1  T
     SCC iter.                  ...        0 min,  0.023 sec
     gradient                   ...        0 min,  0.091 sec
 * total energy  :   -90.5736214 Eh     change       -0.1218495E-03 Eh
   gradient norm :     0.0081896 Eh/α   predicted    -0.1183393E-03 (  -2.88%)
   displ. norm   :     0.0842786 α      lambda       -0.1049249E-03
   maximum displ.:     0.0569525 α      in ANC's #2, #1, #15, ...

........................................................................
.............................. CYCLE   48 ..............................
........................................................................

 iter      E             dE          RMSdq      gap      omega  full diag
   1    -91.8786161 -0.918786E+02  0.162E-02    3.24       0.0  T
   2    -91.8786170 -0.849551E-06  0.957E-03    3.24       1.4  T
   3    -91.8786165  0.430062E-06  0.452E-03    3.24       2.9  T
   4    -91.8786171 -0.606138E-06  0.102E-03    3.24      12.9  T
   5    -91.8786172 -0.442978E-07  0.269E-04    3.24      49.2  T
   6    -91.8786172 -0.970857E-09  0.141E-04    3.24      94.2  T
     SCC iter.                  ...        0 min,  0.023 sec
     gradient                   ...        0 min,  0.062 sec
 * total energy  :   -90.5737105 Eh     change       -0.8915774E-04 Eh
   gradient norm :     0.0054543 Eh/α   predicted    -0.5286030E-04 ( -40.71%)
   displ. norm   :     0.2444561 α      lambda       -0.2249759E-03
   maximum displ.:     0.1651871 α      in ANC's #2, #1, #15, ...

........................................................................
.............................. CYCLE   49 ..............................
........................................................................

 iter      E             dE          RMSdq      gap      omega  full diag
   1    -91.8796241 -0.918796E+02  0.424E-02    3.23       0.0  T
   2    -91.8796290 -0.489677E-05  0.249E-02    3.23       1.0  T
   3    -91.8796259  0.306658E-05  0.112E-02    3.23       1.2  T
   4    -91.8796300 -0.405926E-05  0.248E-03    3.23       5.3  T
   5    -91.8796303 -0.258558E-06  0.656E-04    3.23      20.2  T
   6    -91.8796303 -0.557665E-08  0.337E-04    3.23      39.3  T
     SCC iter.                  ...        0 min,  0.068 sec
     gradient                   ...        0 min,  0.044 sec
 * total energy  :   -90.5738718 Eh     change       -0.1612963E-03 Eh
   gradient norm :     0.0038141 Eh/α   predicted    -0.1192263E-03 ( -26.08%)
   displ. norm   :     0.2878166 α      lambda       -0.1436422E-03
   maximum displ.:     0.1936922 α      in ANC's #2, #1, #15, ...

........................................................................
.............................. CYCLE   50 ..............................
........................................................................

 iter      E             dE          RMSdq      gap      omega  full diag
   1    -91.8790700 -0.918791E+02  0.447E-02    3.22       0.0  T
   2    -91.8790724 -0.238527E-05  0.262E-02    3.22       1.0  T
   3    -91.8790706  0.184208E-05  0.740E-03    3.22       1.8  T
   4    -91.8790728 -0.224264E-05  0.177E-03    3.22       7.5  T
   5    -91.8790729 -0.118795E-06  0.620E-04    3.22      21.3  T
   6    -91.8790729 -0.246355E-08  0.318E-04    3.22      41.7  T
     SCC iter.                  ...        0 min,  0.023 sec
     gradient                   ...        0 min,  0.052 sec
 * total energy  :   -90.5739817 Eh     change       -0.1098748E-03 Eh
   gradient norm :     0.0070949 Eh/α   predicted    -0.7779207E-04 ( -29.20%)
   displ. norm   :     0.2903936 α      lambda       -0.1880189E-03
   maximum displ.:     0.2106762 α      in ANC's #2, #1, #13, ...

........................................................................
.............................. CYCLE   51 ..............................
........................................................................

 iter      E             dE          RMSdq      gap      omega  full diag
   1    -91.8807511 -0.918808E+02  0.486E-02    3.21       0.0  T
   2    -91.8807527 -0.158959E-05  0.284E-02    3.21       1.0  T
   3    -91.8807518  0.833986E-06  0.516E-03    3.21       2.6  T
   4    -91.8807530 -0.118696E-05  0.139E-03    3.21       9.5  T
   5    -91.8807531 -0.490746E-07  0.636E-04    3.21      20.8  T
   6    -91.8807531 -0.770129E-09  0.264E-04    3.21      50.1  T
     SCC iter.                  ...        0 min,  0.062 sec
     gradient                   ...        0 min,  0.042 sec
 * total energy  :   -90.5741077 Eh     change       -0.1259986E-03 Eh
   gradient norm :     0.0080372 Eh/α   predicted    -0.1019373E-03 ( -19.10%)
   displ. norm   :     0.4366855 α      lambda       -0.2110829E-03
   maximum displ.:     0.3054300 α      in ANC's #2, #1, #15, ...

........................................................................
.............................. CYCLE   52 ..............................
........................................................................

 iter      E             dE          RMSdq      gap      omega  full diag
   1    -91.8783583 -0.918784E+02  0.635E-02    3.21       0.0  T
   2    -91.8783620 -0.363594E-05  0.371E-02    3.21       1.0  T
   3    -91.8783612  0.766553E-06  0.593E-03    3.21       2.2  T
   4    -91.8783624 -0.114469E-05  0.222E-03    3.21       6.0  T
   5    -91.8783625 -0.168371E-06  0.850E-04    3.21      15.6  T
   6    -91.8783625  0.452061E-09  0.360E-04    3.21      36.8  T
     SCC iter.                  ...        0 min,  0.050 sec
     gradient                   ...        0 min,  0.046 sec
 * total energy  :   -90.5742429 Eh     change       -0.1352535E-03 Eh
   gradient norm :     0.0086761 Eh/α   predicted    -0.1256684E-03 (  -7.09%)
   displ. norm   :     0.2382547 α      lambda       -0.1972734E-03
   maximum displ.:     0.1810436 α      in ANC's #2, #1, #5, ...

........................................................................
.............................. CYCLE   53 ..............................
........................................................................

 iter      E             dE          RMSdq      gap      omega  full diag
   1    -91.8797085 -0.918797E+02  0.336E-02    3.21       0.0  T
   2    -91.8797107 -0.222877E-05  0.194E-02    3.21       1.0  T
   3    -91.8797087  0.202513E-05  0.856E-03    3.21       1.5  T
   4    -91.8797113 -0.256610E-05  0.177E-03    3.21       7.5  T
   5    -91.8797114 -0.122347E-06  0.478E-04    3.21      27.7  T
   6    -91.8797114 -0.655021E-09  0.222E-04    3.21      59.6  T
     SCC iter.                  ...        0 min,  0.023 sec
     gradient                   ...        0 min,  0.080 sec
 * total energy  :   -90.5744023 Eh     change       -0.1593387E-03 Eh
   gradient norm :     0.0044431 Eh/α   predicted    -0.1042364E-03 ( -34.58%)
   displ. norm   :     0.4540394 α      lambda       -0.2514918E-03
   maximum displ.:     0.3473386 α      in ANC's #2, #1, #5, ...

........................................................................
.............................. CYCLE   54 ..............................
........................................................................

 iter      E             dE          RMSdq      gap      omega  full diag
   1    -91.8803562 -0.918804E+02  0.596E-02    3.21       0.0  T
   2    -91.8803589 -0.270659E-05  0.346E-02    3.21       1.0  T
   3    -91.8803560  0.297275E-05  0.912E-03    3.21       1.5  T
   4    -91.8803595 -0.354185E-05  0.220E-03    3.21       6.0  T
   5    -91.8803597 -0.175742E-06  0.718E-04    3.21      18.4  T
   6    -91.8803597 -0.273104E-09  0.249E-04    3.21      53.3  T
     SCC iter.                  ...        0 min,  0.023 sec
     gradient                   ...        0 min,  0.059 sec
 * total energy  :   -90.5746023 Eh     change       -0.1999876E-03 Eh
   gradient norm :     0.0053230 Eh/α   predicted    -0.1516726E-03 ( -24.16%)
   displ. norm   :     0.5233766 α      lambda       -0.2418690E-03
   maximum displ.:     0.4033384 α      in ANC's #2, #1, #5, ...

........................................................................
.............................. CYCLE   55 ..............................
........................................................................

 iter      E             dE          RMSdq      gap      omega  full diag
   1    -91.8804129 -0.918804E+02  0.666E-02    3.21       0.0  T
   2    -91.8804143 -0.137326E-05  0.389E-02    3.21       1.0  T
   3    -91.8804138  0.445749E-06  0.423E-03    3.21       3.1  T
   4    -91.8804147 -0.819386E-06  0.152E-03    3.21       8.7  T
   5    -91.8804147 -0.489491E-07  0.681E-04    3.21      19.5  T
   6    -91.8804147 -0.390523E-08  0.252E-04    3.21      52.6  T
     SCC iter.                  ...        0 min,  0.023 sec
     gradient                   ...        0 min,  0.063 sec
 * total energy  :   -90.5748102 Eh     change       -0.2079395E-03 Eh
   gradient norm :     0.0071457 Eh/α   predicted    -0.1540621E-03 ( -25.91%)
   displ. norm   :     0.5932327 α      lambda       -0.2878573E-03
   maximum displ.:     0.4573742 α      in ANC's #2, #1, #5, ...

........................................................................
.............................. CYCLE   56 ..............................
........................................................................

 iter      E             dE          RMSdq      gap      omega  full diag
   1    -91.8809910 -0.918810E+02  0.756E-02    3.21       0.0  T
   2    -91.8809934 -0.234414E-05  0.444E-02    3.21       1.0  T
   3    -91.8809920  0.137691E-05  0.644E-03    3.21       2.1  T
   4    -91.8809940 -0.195704E-05  0.178E-03    3.21       7.4  T
   5    -91.8809940 -0.782939E-07  0.869E-04    3.21      15.2  T
   6    -91.8809940 -0.553271E-08  0.353E-04    3.21      37.6  T
     SCC iter.                  ...        0 min,  0.023 sec
     gradient                   ...        0 min,  0.045 sec
 * total energy  :   -90.5750503 Eh     change       -0.2400659E-03 Eh
   gradient norm :     0.0064957 Eh/α   predicted    -0.1945824E-03 ( -18.95%)
   displ. norm   :     0.7375973 α      lambda       -0.3016190E-03
   maximum displ.:     0.5683532 α      in ANC's #2, #1, #5, ...

........................................................................
.............................. CYCLE   57 ..............................
........................................................................

 iter      E             dE          RMSdq      gap      omega  full diag
   1    -91.8765298 -0.918765E+02  0.947E-02    3.20       0.0  T
   2    -91.8765397 -0.994925E-05  0.554E-02    3.20       1.0  T
   3    -91.8765327  0.701853E-05  0.145E-02    3.20       1.0  T
   4    -91.8765412 -0.851113E-05  0.389E-03    3.20       3.4  T
   5    -91.8765418 -0.566688E-06  0.133E-03    3.20      10.0  T
   6    -91.8765418 -0.685398E-08  0.624E-04    3.20      21.2  T
   7    -91.8765418 -0.984717E-08  0.162E-04    3.20      82.0  T
     SCC iter.                  ...        0 min,  0.027 sec
     gradient                   ...        0 min,  0.066 sec
 * total energy  :   -90.5751835 Eh     change       -0.1332004E-03 Eh
   gradient norm :     0.0096761 Eh/α   predicted    -0.2328634E-03 (  74.82%)
   displ. norm   :     0.3473060 α      lambda       -0.4900907E-03
   maximum displ.:     0.2377288 α      in ANC's #2, #1, #5, ...

........................................................................
.............................. CYCLE   58 ..............................
........................................................................

 iter      E             dE          RMSdq      gap      omega  full diag
   1    -91.8833944 -0.918834E+02  0.601E-02    3.19       0.0  T
   2    -91.8834021 -0.767042E-05  0.346E-02    3.19       1.0  T
   3    -91.8834018  0.309224E-06  0.794E-03    3.19       1.7  T
   4    -91.8834026 -0.858054E-06  0.212E-03    3.19       6.2  T
   5    -91.8834028 -0.147361E-06  0.948E-04    3.19      14.0  T
   6    -91.8834028 -0.138527E-09  0.363E-04    3.19      36.5  T
     SCC iter.                  ...        0 min,  0.023 sec
     gradient                   ...        0 min,  0.084 sec
[...]
   F. Musil, H. Neugebauer, J. Pisarek, C. Plett, P. Pracht, F. Pultar,
   J. Seibert, P. Shushkov, S. Spicher, M. Stahn, M. Steiner, T. Strunk,
   J. Stückrath, T. Rose, and J. Unsleber
   
 * started run on 2025/05/15 at 16:18:46.149     
   ID    Z sym.   atoms
    1    6 C      1, 3, 5-7, 10-14, 16, 18, 19, 21-25, 27-32
    2    7 N      2, 4, 8, 15, 17, 20
    3    8 O      9
    4    9 F      26
    5    1 H      33-57

           -------------------------------------------------
          |                Calculation Setup                |
           -------------------------------------------------

          program call               : xtb /rds/general/user/hgt20/home/callum/QDESCP/Mizolastine_rdkit_conf_23/Mizolastine_rdkit_conf_23.xyz --acc 1 --gfn 2 --chrg 0 --uhf 2 --etemp 300 --input /rds/general/user/hgt20/home/callum/QDESCP/Mizolastine_rdkit_conf_23/Mizolastine_rdkit_conf_23_xtb.inp -P 1
          hostname                   : login-c
          coordinate file            : /rds/general/user/hgt20/home/callum/QDESCP/Mizolastine_rdkit_conf_23/Mizolastine_rdkit_conf_23.xyz
          omp threads                :                     1


           -------------------------------------------------
          |                 G F N 2 - x T B                 |
           -------------------------------------------------

        Reference                      10.1021/acs.jctc.8b01176
      * Hamiltonian:
        H0-scaling (s, p, d)           1.850000    2.230000    2.230000
        zeta-weighting                 0.500000
      * Dispersion:
        s8                             2.700000
        a1                             0.520000
        a2                             5.000000
        s9                             5.000000
      * Repulsion:
        kExp                           1.500000    1.000000
        rExp                           1.000000
      * Coulomb:
        alpha                          2.000000
        third order                    shell-resolved
        anisotropic                    true
        a3                             3.000000
        a5                             4.000000
        cn-shift                       1.200000
        cn-exp                         4.000000
        max-rad                        5.000000


          ...................................................
          :                      SETUP                      :
          :.................................................:
          :  # basis functions                 153          :
          :  # atomic orbitals                 153          :
          :  # shells                           89          :
          :  # electrons                       164          :
          :  max. iterations                   250          :
          :  Hamiltonian                  GFN2-xTB          :
          :  restarted?                      false          :
          :  GBSA solvation                  false          :
          :  PC potential                    false          :
          :  electronic temp.          300.0000000     K    :
          :  accuracy                    1.0000000          :
          :  -> integral cutoff          0.2500000E+02      :
          :  -> integral neglect         0.1000000E-07      :
          :  -> SCF convergence          0.1000000E-05 Eh   :
          :  -> wf. convergence          0.1000000E-03 e    :
          :  Broyden damping             0.4000000          :
          :  net charge                          0          :
          :  unpaired electrons                  2          :
          ...................................................

 iter      E             dE          RMSdq      gap      omega  full diag
   1    -91.2930610 -0.912931E+02  0.381E+00    0.22       0.0  T
   2    -91.3087102 -0.156492E-01  0.324E+00    0.94       1.0  T
   3    -91.4838812 -0.175171E+00  0.216E+00    0.05       1.0  T
   4    -91.3431311  0.140750E+00  0.202E+00    1.11       1.0  T
   5    -91.5569470 -0.213816E+00  0.132E+00    0.22       1.0  T
   6    -91.5087380  0.482090E-01  0.135E+00    0.69       1.0  T
   7    -91.7112467 -0.202509E+00  0.596E-01    0.11       1.0  T
   8    -91.5584535  0.152793E+00  0.109E+00    0.20       1.0  T
   9    -91.5798749 -0.214214E-01  0.993E-01    0.24       1.0  T
  10    -91.7492007 -0.169326E+00  0.217E-01    0.04       1.0  T
  11    -91.7295397  0.196610E-01  0.380E-01    0.07       1.0  T
  12    -91.7370508 -0.751110E-02  0.318E-01    0.01       1.0  T
  13    -91.7519859 -0.149351E-01  0.141E-01    0.04       1.0  T
  14    -91.7553088 -0.332288E-02  0.360E-02    0.02       1.0  T
  15    -91.7555242 -0.215446E-03  0.120E-02    0.02       1.1  T
  16    -91.7554513  0.729396E-04  0.222E-02    0.02       1.0  T
  17    -91.7555303 -0.790146E-04  0.815E-03    0.02       1.6  T
  18    -91.7555387 -0.838740E-05  0.440E-03    0.02       3.0  T
  19    -91.7555420 -0.331294E-05  0.106E-03    0.02      12.5  T
  20    -91.7555417  0.314844E-06  0.169E-03    0.02       7.8  T
  21    -91.7555422 -0.505990E-06  0.173E-04    0.02      76.4  T
  22    -91.7555422  0.412166E-07  0.501E-04    0.02      26.4  T

   *** convergence criteria satisfied after 22 iterations ***

         #    Occupation            Energy/Eh            Energy/eV
      -------------------------------------------------------------
         1        2.0000           -0.8121066             -22.0985
       ...           ...                  ...                  ...
        77        2.0000           -0.3957454             -10.7688
        78        2.0000           -0.3914352             -10.6515
        79        1.9996           -0.3887620             -10.5788
        80        1.9972           -0.3868978             -10.5280
        81        1.6015           -0.3817021             -10.3866
        82        1.4017           -0.3809323             -10.3657
        83        0.5925           -0.2432860              -6.6201 (HOMO)
        84        0.3732           -0.2424379              -6.5971 (LUMO)
        85        0.0341           -0.2397537              -6.5240
        86        0.0002           -0.2347050              -6.3866
        87                         -0.2149416              -5.8489
        88                         -0.2119630              -5.7678
       ...                                ...                  ...
       153                          0.7075578              19.2536
      -------------------------------------------------------------
                  HL-Gap            0.0008481 Eh            0.0231 eV
             Fermi-level           -0.3121206 Eh           -8.4932 eV

 transition dipole moment (au) for excitation:          82          83
     X       Y       Z   
  -1.5573  -0.1056   0.5694  total (au/Debye):    1.662   4.223
 dE (eV)             :    3.746
 oscillator strength :  0.35826E+00

 SCC (total)                   0 d,  0 h,  0 min,  0.172 sec
 SCC setup                      ...        0 min,  0.001 sec (  0.361%)
 Dispersion                     ...        0 min,  0.001 sec (  0.494%)
 classical contributions        ...        0 min,  0.000 sec (  0.151%)
 integral evaluation            ...        0 min,  0.013 sec (  7.337%)
 iterations                     ...        0 min,  0.088 sec ( 51.434%)
 molecular gradient             ...        0 min,  0.059 sec ( 34.056%)
 printout                       ...        0 min,  0.011 sec (  6.161%)

         :::::::::::::::::::::::::::::::::::::::::::::::::::::
         ::                     SUMMARY                     ::
         :::::::::::::::::::::::::::::::::::::::::::::::::::::
         :: total energy             -90.447018752470 Eh    ::
         :: gradient norm              0.100150829698 Eh/a0 ::
         :: HOMO-LUMO gap              0.023077295107 eV    ::
         ::.................................................::
         :: SCC energy               -91.754907419922 Eh    ::
         :: -> isotropic ES            0.088644776939 Eh    ::
         :: -> anisotropic ES          0.005857843630 Eh    ::
         :: -> anisotropic XC          0.041682135131 Eh    ::
         :: -> dispersion             -0.067512973896 Eh    ::
         :: repulsion energy           1.307888667451 Eh    ::
         :: add. restraining           0.000000000000 Eh    ::
         :: total charge              -0.000000000813 e     ::
         :::::::::::::::::::::::::::::::::::::::::::::::::::::

           -------------------------------------------------
          |                Property Printout                |
           -------------------------------------------------

    * Orbital Energies and Occupations

         #    Occupation            Energy/Eh            Energy/eV
      -------------------------------------------------------------
         1        2.0000           -0.8121066             -22.0985
       ...           ...                  ...                  ...
        71        2.0000           -0.4355864             -11.8529
        72        2.0000           -0.4327350             -11.7753
        73        2.0000           -0.4209859             -11.4556
        74        2.0000           -0.4184985             -11.3879
        75        2.0000           -0.4169504             -11.3458
        76        2.0000           -0.4069636             -11.0740
        77        2.0000           -0.3957454             -10.7688
        78        2.0000           -0.3914352             -10.6515
        79        1.9996           -0.3887620             -10.5788
        80        1.9972           -0.3868978             -10.5280
        81        1.6015           -0.3817021             -10.3866
        82        1.4017           -0.3809323             -10.3657
        83        0.5925           -0.2432860              -6.6201 (HOMO)
        84        0.3732           -0.2424379              -6.5971 (LUMO)
        85        0.0341           -0.2397537              -6.5240
        86        0.0002           -0.2347050              -6.3866
        87                         -0.2149416              -5.8489
        88                         -0.2119630              -5.7678
        89                         -0.1835419              -4.9944
        90                         -0.1099612              -2.9922
        91                         -0.1093806              -2.9764
        92                         -0.0839578              -2.2846
        93                         -0.0543367              -1.4786
        94                         -0.0247100              -0.6724
       ...                                ...                  ...
       153                          0.7075578              19.2536
      -------------------------------------------------------------
                  HL-Gap            0.0008481 Eh            0.0231 eV
             Fermi-level           -0.3121206 Eh           -8.4932 eV

     #   Z          covCN         q      C6AA      α(0)
     1   6 C        3.695    -0.054    21.717     6.667
     2   7 N        2.746    -0.078    22.749     7.084
     3   6 C        2.835     0.199    23.777     7.991
     4   7 N        1.845    -0.279    28.099     7.856
     5   6 C        2.903     0.030    27.336     8.573
     6   6 C        2.904    -0.081    30.013     8.983
     7   6 C        2.768     0.267    22.489     7.767
     8   7 N        2.705    -0.197    25.270     7.466
     9   8 O        0.859    -0.435    22.393     6.344
    10   6 C        3.806     0.022    20.204     6.399
    11   6 C        3.808    -0.071    21.848     6.654
    12   6 C        3.764     0.007    20.499     6.454
    13   6 C        3.808    -0.071    21.859     6.655
    14   6 C        3.772     0.003    20.568     6.462
    15   7 N        2.737    -0.123    23.666     7.225
    16   6 C        3.150     0.185    23.809     7.981
    17   7 N        1.883    -0.317    29.059     7.991
    18   6 C        3.198     0.074    25.820     8.282
    19   6 C        3.095     0.043    26.919     8.503
    20   7 N        2.816    -0.078    22.744     7.083
    21   6 C        3.745     0.001    20.635     6.480
    22   6 C        2.971    -0.009    28.244     8.717
    23   6 C        2.929    -0.041    29.029     8.836
    24   6 C        2.916    -0.053    29.324     8.880
    25   6 C        2.788     0.162    24.488     8.106
    26   9 F        0.787    -0.231    11.563     4.017
    27   6 C        2.916    -0.053    29.312     8.878
    28   6 C        2.927    -0.040    28.985     8.829
    29   6 C        2.908    -0.061    29.514     8.908
    30   6 C        2.927    -0.032    28.793     8.800
    31   6 C        2.923    -0.036    28.887     8.814
    32   6 C        2.911    -0.051    29.271     8.872
    33   1 H        0.925     0.071     2.079     2.255
    34   1 H        0.924     0.059     2.215     2.328
    35   1 H        0.924     0.060     2.203     2.321
    36   1 H        0.925     0.032     2.553     2.499
    37   1 H        0.926     0.054     2.267     2.355
    38   1 H        0.860     0.181     1.207     1.721
    39   1 H        0.924     0.093     1.848     2.126
    40   1 H        0.924     0.050     2.322     2.383
    41   1 H        0.924     0.053     2.285     2.364
    42   1 H        0.924     0.049     2.330     2.387
    43   1 H        0.923     0.044     2.398     2.422
    44   1 H        0.925     0.056     2.249     2.345
    45   1 H        0.924     0.051     2.305     2.374
    46   1 H        0.924     0.068     2.112     2.273
    47   1 H        0.923     0.051     2.302     2.373
    48   1 H        0.924     0.054     2.270     2.356
    49   1 H        0.924     0.052     2.295     2.369
    50   1 H        0.926     0.037     2.484     2.465
    51   1 H        0.926     0.052     2.300     2.372
    52   1 H        0.926     0.054     2.268     2.355
    53   1 H        0.926     0.036     2.506     2.475
    54   1 H        0.926     0.026     2.637     2.540
    55   1 H        0.926     0.034     2.524     2.484
    56   1 H        0.926     0.035     2.512     2.478
    57   1 H        0.926     0.044     2.400     2.422

 Mol. C6AA /au·bohr⁶  :      38619.085069
 Mol. C8AA /au·bohr⁸  :     915325.467743
 Mol. α(0) /au        :        305.398269


Wiberg/Mayer (AO) data.
largest (>0.10) Wiberg bond orders for each atom

 ---------------------------------------------------------------------------
     #   Z sym  total        # sym  WBO       # sym  WBO       # sym  WBO
 ---------------------------------------------------------------------------
     1   6 C    3.969 --     2 N    1.006    33 H    0.974    34 H    0.970
                            35 H    0.970
     2   7 N    3.403 --     3 C    1.195     1 C    1.006    10 C    0.976
     3   6 C    3.859 --     4 N    1.371     2 N    1.195     8 N    1.154
     4   7 N    2.939 --     3 C    1.371     5 C    1.320
     5   6 C    3.733 --     6 C    1.321     4 N    1.320    36 H    0.964
     6   6 C    3.662 --     5 C    1.321     7 C    1.196    37 H    0.967
     7   6 C    3.896 --     9 O    1.613     6 C    1.196     8 N    1.021
     8   7 N    3.391 --     3 C    1.154     7 C    1.021    38 H    0.927
                             9 O    0.103
     9   8 O    1.892 --     7 C    1.613     8 N    0.103
    10   6 C    3.958 --    11 C    0.985    13 C    0.983     2 N    0.976
                            39 H    0.945
    11   6 C    3.986 --    12 C    1.002    10 C    0.985    41 H    0.974
                            40 H    0.971
    12   6 C    3.963 --    11 C    1.002    15 N    0.975    42 H    0.968
                            43 H    0.959
    13   6 C    3.981 --    14 C    0.999    10 C    0.983    44 H    0.974
                            45 H    0.972
    14   6 C    3.968 --    13 C    0.999    15 N    0.989    46 H    0.970
                            47 H    0.959
    15   7 N    3.223 --    16 C    1.105    14 C    0.989    12 C    0.975
    16   6 C    3.800 --    17 N    1.415    20 N    1.131    15 N    1.105
    17   7 N    2.933 --    16 C    1.415    18 C    1.250
    18   6 C    3.889 --    32 C    1.273    17 N    1.250    19 C    1.206
    19   6 C    3.901 --    29 C    1.369    18 C    1.206    20 N    1.140
    20   7 N    3.526 --    19 C    1.140    16 C    1.131    21 C    0.978
    21   6 C    3.969 --    22 C    0.991    20 N    0.978    49 H    0.967
                            48 H    0.958
    22   6 C    3.946 --    28 C    1.400    23 C    1.387    21 C    0.991
    23   6 C    3.959 --    24 C    1.450    22 C    1.387    50 H    0.968
                            27 C    0.101
    24   6 C    3.967 --    23 C    1.450    25 C    1.377    51 H    0.968
    25   6 C    3.838 --    27 C    1.386    24 C    1.377    26 F    0.954
    26   9 F    1.078 --    25 C    0.954
    27   6 C    3.962 --    28 C    1.437    25 C    1.386    52 H    0.968
                            23 C    0.101
    28   6 C    3.961 --    27 C    1.437    22 C    1.400    53 H    0.968
    29   6 C    3.914 --    30 C    1.403    19 C    1.369    54 H    0.967
    30   6 C    3.854 --    29 C    1.403    31 C    1.370    55 H    0.972
    31   6 C    3.959 --    32 C    1.489    30 C    1.370    56 H    0.971
    32   6 C    3.881 --    31 C    1.489    18 C    1.273    57 H    0.968
    33   1 H    0.995 --     1 C    0.974
    34   1 H    0.991 --     1 C    0.970
    35   1 H    0.991 --     1 C    0.970
    36   1 H    0.998 --     5 C    0.964
    37   1 H    0.997 --     6 C    0.967
    38   1 H    0.967 --     8 N    0.927
    39   1 H    0.991 --    10 C    0.945
    40   1 H    0.997 --    11 C    0.971
    41   1 H    0.996 --    11 C    0.974
    42   1 H    0.996 --    12 C    0.968
    43   1 H    0.987 --    12 C    0.959
    44   1 H    0.996 --    13 C    0.974
    45   1 H    0.997 --    13 C    0.972
    46   1 H    0.994 --    14 C    0.970
    47   1 H    0.987 --    14 C    0.959
    48   1 H    0.994 --    21 C    0.958
    49   1 H    0.996 --    21 C    0.967
    50   1 H    0.999 --    23 C    0.968
    51   1 H    0.997 --    24 C    0.968
    52   1 H    0.997 --    27 C    0.968
    53   1 H    0.999 --    28 C    0.968
    54   1 H    0.999 --    29 C    0.967
    55   1 H    0.998 --    30 C    0.972
    56   1 H    0.998 --    31 C    0.971
    57   1 H    0.997 --    32 C    0.968
 ---------------------------------------------------------------------------

Topologies differ in total number of bonds
Writing topology from bond orders to xtbtopo.mol

molecular dipole:
                 x           y           z       tot (Debye)
 q only:       -1.300      -1.095       0.209
   full:       -1.400      -1.288      -0.154       4.852
molecular quadrupole (traceless):
                xx          xy          yy          xz          yz          zz
 q only:      -52.035      11.704      31.934      19.842       7.282      20.101
  q+dip:      -47.307      16.022      31.389      20.240       7.270      15.918
   full:      -49.873      14.401      33.691      18.786       7.321      16.182


           -------------------------------------------------
          | TOTAL ENERGY              -90.447018752470 Eh   |
          | GRADIENT NORM               0.100150829698 Eh/α |
          | HOMO-LUMO GAP               0.023077295107 eV   |
           -------------------------------------------------

------------------------------------------------------------------------
 * finished run on 2025/05/15 at 16:18:46.343     
------------------------------------------------------------------------
 total:
 * wall-time:     0 d,  0 h,  0 min,  0.194 sec
 *  cpu-time:     0 d,  0 h,  0 min,  0.172 sec
 * ratio c/w:     0.887 speedup
 SCF:
 * wall-time:     0 d,  0 h,  0 min,  0.172 sec
 *  cpu-time:     0 d,  0 h,  0 min,  0.155 sec
 * ratio c/w:     0.902 speedup


