57
 energy: -90.577071539983 gnorm: 0.000442369620 xtb: 6.7.1 (edcfbbe)
C            2.95903067330119        0.64247117976865       -2.78857940221335
N            3.47712303724062        0.16611492921650       -1.52714974935735
C            4.80814948447908        0.04506268623716       -1.32207638911238
N            5.24710044763901       -0.35893103228512       -0.15450711530753
C            6.57961938810996       -0.46517850117196        0.00757512736125
C            7.50072565650989       -0.18733528989405       -0.95069408028656
C            7.06255867338676        0.25183313084183       -2.24286618216767
N            5.65992814284930        0.34196161453438       -2.33875085804917
O            7.73266475922872        0.53916484627919       -3.21382031711294
C            2.56555259985709       -0.14195570099888       -0.43773192298595
C            1.58590717781661       -1.26270702365524       -0.79674670286656
C            0.70677141910969       -1.55479643234369        0.41670310916755
C            1.79042263944701        1.08841795393193        0.04121601751233
C            0.89790717532589        0.69736404559912        1.21598420188878
N           -0.01840727177101       -0.34354753907262        0.77652992529496
C           -1.13050106907111       -0.49809872903109        1.58436896708674
N           -1.23680433949670       -0.06025834940343        2.80575095728451
C           -2.51949483595225       -0.35787556074003        3.19617096238587
C           -3.19437636973362       -1.00253315183644        2.13551810083597
N           -2.27695478153606       -1.09532087169702        1.10873483460284
C           -2.61565351227142       -1.40325045612830       -0.25881168256001
C           -3.41052792703766       -0.27162679125624       -0.86742618526554
C           -2.84379334783711        0.99708332573531       -0.92068584824966
C           -3.54933711265873        2.06321185585147       -1.44417160624497
C           -4.83118453063308        1.84222937550769       -1.91607529667576
F           -5.52518421918751        2.87622737389974       -2.43278527074221
C           -5.41893594262580        0.59217919192941       -1.87511665656903
C           -4.69897087827536       -0.46353038163471       -1.34365220621660
C           -4.50918210192272       -1.41502244144154        2.25154837766813
C           -5.14046756908715       -1.17109814195444        3.45692877772900
C           -4.48114593652686       -0.54033114397846        4.51076965487914
C           -3.16924496830619       -0.12488248554071        4.40035526427111
H            1.87764900564524        0.70987026874899       -2.72325027681536
H            3.20601106152772       -0.04340491606277       -3.60475423150754
H            3.34343692888599        1.63863948932613       -3.02711429635376
H            6.87435681185061       -0.79965018964118        0.99345826418942
H            8.55855627692525       -0.28409605111969       -0.77933802442488
H            5.31891886969361        0.65163461836924       -3.23891717393795
H            3.20938116773193       -0.48725957248028        0.37655895964297
H            0.94929899284960       -0.96525041642127       -1.63207665327222
H            2.13576927858428       -2.16046024327747       -1.08096873656494
H            0.00086398993239       -2.35779089042968        0.19837253162550
H            1.34045451865817       -1.88445806194651        1.25479569208221
H            2.48828655352274        1.86559801375449        0.35245029740972
H            1.16565523478563        1.48381064188830       -0.76158153610791
H            0.30552721253884        1.54737454891479        1.55584565860494
H            1.51199994934094        0.35479434243477        2.05956025039020
H           -1.69332333022316       -1.54266935746158       -0.82617499041542
H           -3.19219254056657       -2.33309815817988       -0.28207597938782
H           -1.84414810920343        1.14612151420190       -0.54013648891341
H           -3.12441694575741        3.05336021035441       -1.48923131775505
H           -6.42126360858193        0.45758526650947       -2.24901537308227
H           -5.14767956264317       -1.44522934173118       -1.30650151495627
H           -5.02635116465438       -1.90309287716220        1.43932815613121
H           -6.16858189833103       -1.47558632224709        3.58532968683275
H           -5.01473024363342       -0.37368286927161        5.43486691078597
H           -2.65647300923283        0.36219886758864        5.21386337983262
