98
 energy: -148.204889574731 gnorm: 0.000510812062 xtb: 6.7.1 (edcfbbe)
O           -5.41882494148441        2.21633211448663        0.23837872148545
C           -5.09312565231238        1.10352040250555        0.59239652834315
N           -3.96198815103334        0.45396224722830        0.27099258236338
C           -3.10724388026683        0.75496075941325       -0.87615098718969
C           -3.87206863877485        0.55317200023600       -2.19917987472802
C           -4.72266794528966       -0.68287520102577       -2.13339584365020
C           -4.13661392829395       -1.94029934150484       -2.03603657449022
C           -4.92173276714347       -3.07232747826755       -1.91276983326453
C           -6.30238162354338       -2.96306135050634       -1.88132425070722
C           -6.89558614880364       -1.71677286376920       -1.98282501482244
C           -6.10742521156597       -0.58555375351107       -2.10748010808983
C           -2.48336422372861        2.17283878199384       -0.80552880348686
C           -1.98814583739193        2.51411426872298        0.61202333782204
C           -1.00082063305648        1.49687627190594        1.19011336343025
N            0.17139430205795        1.37944884561861        0.35246187711511
C            0.48332989093685        0.27487297654694       -0.33297366739631
C            1.87908761084117        0.37555457532782       -0.97796825833590
N            2.89052611519581        0.36888412313062        0.06484277302872
C            3.24936006208125        1.51018295674036        0.69938749149348
N            4.27999479373604        1.40976849379843        1.59072671467441
C            4.81025825664066        2.61201862102114        2.18595343666328
C            4.87728963439256        0.15240498734598        1.98669212123723
C            5.89601936250669       -0.34526931373396        1.00234256797786
C            7.22465788147162       -0.05599000594930        1.00890498091205
S            8.02380612214986       -0.82335310940199       -0.30440254466077
C            6.48102413875441       -1.49765929376800       -0.78699292768948
C            6.37486458940724       -2.41127657673574       -1.95754241272485
C            6.97010943988458       -1.76163637358390       -3.20674518743807
C            7.08659428221636       -3.72998182790522       -1.64213740624459
N            5.50564270627168       -1.15371380488731       -0.02266495771541
O            2.66858736611401        2.57695934333289        0.51192670984332
C            2.12672818268822       -0.71915621116221       -2.02394368742066
C            2.28984197698930       -2.10477573982119       -1.40036256404572
C            3.33865526554982       -0.35830786262859       -2.87998832446735
O           -0.25791758880611       -0.68729389027992       -0.45043799238575
C           -0.57006289116537        1.90545499410286        2.60515687681333
C            0.52022797389634        1.03866627953208        3.17851654463362
C            0.53920822313172       -0.33872061734214        2.99419056901751
C            1.53916678060646       -1.11270814037489        3.55561213624237
C            2.52875510251745       -0.52594752309338        4.32510492363932
C            2.51986832165342        0.84505027935185        4.51431107768127
C            1.52965196764162        1.61893377703459        3.93731076891963
O           -3.33535822382877        3.17575995899129       -1.27980947151454
O           -5.82472377415149        0.35918708696951        1.46042444964882
C           -7.06551889054141        0.93602139613059        1.86799783737966
C           -8.09269049127405        0.82939112536553        0.79325270627758
C           -8.97239015713857       -0.18796917704993        0.56300160500900
N           -9.76480603443579       -0.03724722332073       -0.51988501494213
C           -9.51655278694718        1.06514341510078       -1.13061818867618
S           -8.26307862610081        2.03498309567759       -0.43429485291021
H           -3.91658011552992       -0.49485023754168        0.61072601899822
H           -2.28901969240328        0.03301916341674       -0.82426696739538
H           -4.49706460318309        1.42675277917081       -2.38963528447241
H           -3.13885877307181        0.47602815050538       -3.00382495939367
H           -3.05956533813151       -2.02819202974907       -2.05327383447847
H           -4.45514284787831       -4.04407239370136       -1.83789842764194
H           -6.91460899211932       -3.84710755179609       -1.78026222303459
H           -7.97180067146103       -1.62460756637033       -1.96041831304539
H           -6.57129973055566        0.38759458505330       -2.18934032676587
H           -1.62770179095943        2.17524177660959       -1.49176276040904
H           -1.51139975864886        3.49523058678463        0.56083889745946
H           -2.85083720105671        2.59448989364744        1.27558066358051
H           -1.47419364437149        0.51181181493095        1.21556898553388
H            0.87839002368794        2.11090874397824        0.42258979051483
H            1.91763120358577        1.35656662838792       -1.47506187694064
H            3.50129633489573       -0.43292391065291        0.08942152586542
H            4.72850313776444        2.57022496699498        3.27425172238494
H            5.85876319775570        2.74956440541582        1.90768780302717
H            4.22620629760792        3.45120705790009        1.81432987355799
H            4.09466727418975       -0.60223931927105        2.11100981398223
H            5.35964323268187        0.30857710547207        2.95432187736261
H            7.77471119250012        0.54695118946381        1.70225273504302
H            5.31137879110172       -2.60986427822291       -2.11970024546703
H            8.02906705099974       -1.55902353225051       -3.05902358339530
H            6.86076683195132       -2.42720810124446       -4.05905048602513
H            6.46485598026989       -0.82545460272424       -3.43250510580194
H            6.98456591224330       -4.41572244087066       -2.47916336813193
H            8.14558954842144       -3.55422349816764       -1.46352336017774
H            6.65631383137935       -4.19482702539281       -0.75802406047606
H            1.23497659077247       -0.73975294189163       -2.65899408395810
H            3.22238135495232       -2.18890843779886       -0.84591689170364
H            2.29485539363538       -2.85879082561574       -2.18465409012158
H            1.45643715573422       -2.30827610217091       -0.73497004758712
H            3.52341744980498       -1.13313884385393       -3.62039657008557
H            3.17629600252244        0.58228687993798       -3.40189280903704
H            4.22289962754002       -0.25679552091532       -2.25499557075376
H           -0.22206367476816        2.94053416005502        2.58185254697637
H           -1.44466039016472        1.86299643055127        3.26103680411669
H           -0.22654212048721       -0.82078453449014        2.40677643171596
H            1.54004409555743       -2.18149835020439        3.39664604815700
H            3.30037709347148       -1.13372583810884        4.77582004534790
H            3.28486107326400        1.31228971237417        5.11838186711958
H            1.53543552681006        2.68956231995459        4.08343408297055
H           -4.16742702537588        3.11877882152388       -0.77256856397305
H           -7.36853187050270        0.36277906834807        2.74635582455572
H           -6.90325944268798        1.98620671145838        2.13519715185377
H           -9.07485441777454       -1.06887471419550        1.17045781010201
H          -10.02838040626471        1.37909314726599       -2.01857846265557
