57
 energy: -90.580263686834 gnorm: 0.000648986759 xtb: 6.7.1 (edcfbbe)
C            2.49790811784826       -1.13384161156398        1.98676278287427
N            3.09268986155655       -0.62967314584307        0.76706163235378
C            4.44079286130810       -0.57090959051213        0.69006528062472
N            5.15177934876511       -1.15351175163721        1.62688531135961
C            6.49154273421344       -1.11168522873537        1.51638738999676
C            7.16852281192833       -0.52262964853121        0.49604994345009
C            6.43446808321610        0.13930598722527       -0.54000149171941
N            5.04027688433195        0.07284765816685       -0.34861634629379
O            6.85833687761902        0.73166031031306       -1.51272934146600
C            2.22123159370651       -0.04731689866967       -0.24074402689382
C            0.90521481756477       -0.81589007605790       -0.38607864952359
C            0.07028540345336       -0.17093688664587       -1.49914095282700
C            1.91131525815967        1.42683609310329        0.05341081069893
C            0.99754869828949        1.99511772752827       -1.03390257011288
N           -0.22328153623720        1.22228465442690       -1.19834770547304
C           -1.17902202411674        1.45867250155002       -0.22920408448716
N           -0.96880431878596        2.06850247402875        0.90509400658240
C           -2.19586706240513        2.16170661722330        1.51300172467147
C           -3.17451088118503        1.56839856706117        0.68480194863576
N           -2.49952949231602        1.13295691423246       -0.43628791773894
C           -3.09965613678652        0.58989259531967       -1.62142226521104
C           -3.24688468780494       -0.91615401862570       -1.60176581666792
C           -3.26470132842487       -1.62495209525305       -0.40684112416204
C           -3.40702993929065       -3.00119320913023       -0.40514615092212
C           -3.53927683809421       -3.65882333438062       -1.61376715059940
F           -3.67474091536232       -4.99959355803213       -1.62034342116269
C           -3.53323061459074       -2.97799845812570       -2.81828898594186
C           -3.38462892127301       -1.60405721321293       -2.80279636724733
C           -4.50508806305444        1.50129699718947        1.05772541875437
C           -4.84184834779477        2.04980713830475        2.28127306821542
C           -3.88353957068793        2.63917691967727        3.10483052023336
C           -2.55388646329385        2.70532936128493        2.73935471947575
H            3.30084223785935       -1.30261172209910        2.69957835817009
H            1.79396100830681       -0.40643613683793        2.39241296549761
H            1.98262722608212       -2.07850677703597        1.80654893797922
H            7.01220588293991       -1.60685891049227        2.32552875468038
H            8.24322333092466       -0.51975999407368        0.44004370086433
H            4.50487830365729        0.56819650900498       -1.04898608984815
H            2.72875758154878       -0.12349893167474       -1.21171319571317
H            0.33172879829970       -0.76822105999336        0.53997918978293
H            1.09912439936272       -1.86152759117967       -0.62859868800469
H            0.61807565533133       -0.19418852528808       -2.44641488971619
H           -0.85837918855869       -0.72718447901467       -1.62440267491885
H            2.83191043119352        2.00999169783265        0.10416102615341
H            1.39306201551935        1.51462016954544        1.00859892575371
H            1.50988071508795        1.99341015416811       -2.00164974475317
H            0.71621133692886        3.01739387805582       -0.78185484437314
H           -4.09411525992378        1.04082750949297       -1.72932514907147
H           -2.49621222848116        0.89458763694980       -2.48295886770334
H           -3.16424477813798       -1.10263940637218        0.53262255824866
H           -3.41896179622823       -3.56122160542249        0.51616352596427
H           -3.64043034331630       -3.52161248584903       -3.74324650219850
H           -3.37421872938885       -1.05793834441332       -3.73443207085386
H           -5.25001950963752        1.03799310068310        0.42720395734428
H           -5.87059685176675        2.01910999125506        2.60784803117889
H           -4.19393335773458        3.05211646066724        4.05316611095119
H           -1.81156309033693        3.15923307042145        3.37584648516130
