49
 energy: -69.209668984025 gnorm: 0.000406919973 xtb: 6.7.1 (edcfbbe)
C            0.81068161990190        1.21727664157565       -2.79250190315905
C            0.58164503034208        0.23759543890797       -1.63680594754527
N            1.69675630644127        0.24927402552604       -0.71755569765480
C            2.87845819730511       -0.39919299097502       -0.88427801612473
C            3.09189349241112       -1.33519310450784       -1.88727894999245
C            4.31677603051623       -1.99404019672201       -1.96830663288411
N            5.32473028207575       -1.79659651416038       -1.16002250627835
C            5.16430570368280       -0.89573388935858       -0.17236699573278
C            3.96088219915856       -0.16174552304635        0.02674245554488
C            3.90873345684683        0.74788850178575        1.09987709473521
C            4.97868864885805        0.93732467110031        1.93177409099301
C            6.15780739967639        0.21068804106208        1.71896114045927
Cl           7.49537216436987        0.47058257631122        2.78366032436419
C            6.25730205952183       -0.68790909479679        0.69501857065487
C           -0.69445141518122        0.58164641570399       -0.86218391524374
C           -1.02661562326932       -0.48566712919897        0.17768976635579
C           -2.17812834113598       -0.10914917587003        1.12890300182827
N           -3.48744285153560        0.13774042821833        0.56148065983688
C           -3.73264881980293        1.45686678398954        0.00516978443132
C           -5.10301885259715        1.97530085422775        0.44192145617506
C           -4.06103406834907       -0.95311586677980       -0.20585848862409
C           -4.60977542043398       -2.02580621843719        0.74286003120208
O           -5.48535134298700       -1.45736492461069        1.68043348026436
H            1.73924696795104        0.98004236293985       -3.30652328297109
H            0.87550809284290        2.23628577127936       -2.41628378333485
H           -0.00636777842228        1.16196518869276       -3.50663919823498
H            0.48011406013932       -0.77675555648693       -2.03567167992013
H            1.70030060076862        1.03240159953544       -0.08369962277683
H            2.32850822190966       -1.56214442574037       -2.61289797005425
H            4.48106913603859       -2.72387189083701       -2.75143975250048
H            3.01074858525106        1.31724055307162        1.29483794172996
H            4.92568180080202        1.63821999062290        2.74987534138676
H            7.15525985363388       -1.25725374895277        0.51973156721097
H           -0.56396865062622        1.55023528126803       -0.37175245135640
H           -1.51512728821920        0.67696029253203       -1.57322312039512
H           -1.26184329868827       -1.42240481606777       -0.33079848938480
H           -0.14436392974932       -0.66895105876233        0.79496857197554
H           -2.28110817325300       -0.92542800390818        1.85160246216702
H           -1.89715011050704        0.78574705644108        1.69070399452861
H           -2.96722058976674        2.14167271137159        0.37425530359860
H           -3.67914652156443        1.45875660735779       -1.09376582792449
H           -5.89410216063815        1.30436185094469        0.11736312341258
H           -5.28518377798558        2.95717567497224        0.01238772727390
H           -5.14523917210614        2.05464596913177        1.52532635826263
H           -4.89662257531223       -0.55448040288855       -0.78376880422789
H           -3.35086089081066       -1.41040537663919       -0.90967715924940
H           -5.17635077213750       -2.77302503194436        0.18212203751079
H           -3.78100947669189       -2.53645443531099        1.25598249697853
H           -5.09623800866901       -0.60500591259277        1.92565141266756
