54
 energy: -87.156574083186 gnorm: 0.000871411679 xtb: 6.7.1 (edcfbbe)
O           -3.73361833835814        3.80768480856957        1.29338720913640
C           -3.01984204481537        2.83441675738267        1.53262967637348
C           -2.87534005726465        1.80576878120901        0.52363587276935
C           -1.93581723269699        0.85717866313573        0.26205023334066
C           -2.14710032047051        0.02518293599758       -0.99158630084859
N           -0.98743127571193        0.17268373833450       -1.86323267637067
C           -0.70986633466485       -0.54462180622937       -2.97286153858361
C            0.59008121390830       -0.12191171193370       -3.62914490709536
O           -1.41412620254091       -1.43226479277833       -3.40706592684070
C           -2.46983610124125       -1.44119890183488       -0.64284242360258
C           -1.58720157507188       -2.02947890403860        0.46357420661483
C           -2.36243198795074        2.67712296818671        2.84048202340343
O           -2.82019605270266        3.31822194268979        3.93530222440331
C           -4.05686915262523        4.00564061194610        3.94362366142461
C           -1.20238355975650        1.98010920127015        3.07004165404342
C           -0.44865322500703        1.14585307127291        2.23737729407386
C           -0.74596923989382        0.60984880133059        1.01055984366620
C            0.23684398027869       -0.35924475252833        0.46402926362890
C            1.55454756498463        0.05091346279082        0.19477056654467
O            1.77412056472696        1.38007467358759        0.41093369970714
C            3.07405765283553        1.92680144170422        0.42128882964240
C            2.46520161603056       -0.86528709745381       -0.34090424919316
O            3.73823023540815       -0.45363051508641       -0.69524172394238
C            4.81191705608011       -1.11025955554960       -0.05011253483909
C           -0.15598443519469       -1.66615365604440        0.21709895972320
C            0.74606539475667       -2.57349118717092       -0.31013291652376
C            2.04348840102787       -2.18447490005146       -0.60325644163871
O            2.97067542025457       -3.00396442655741       -1.17675576065338
C            2.55968230201860       -4.27667545940768       -1.61620652666655
H           -3.66524259045105        1.91172692235572       -0.21335172885510
H           -3.01885743893137        0.41131654708008       -1.53926139997175
H           -0.34553849130420        0.90587357518737       -1.60819085132231
H            0.75610573092697       -0.72600772401688       -4.51580546383543
H            0.54440173311270        0.92635124501647       -3.91412529064806
H            1.41683366848031       -0.26201258287091       -2.93644383053513
H           -3.51424926847009       -1.49324560367599       -0.33097189182793
H           -2.35721944958928       -2.02210182345878       -1.55750307031794
H           -1.90178133313904       -1.63228382602421        1.43201807116100
H           -1.71249535673078       -3.11248587868716        0.48046280130449
H           -4.87541946108962        3.36107943453390        3.61575632085087
H           -4.20898182755072        4.29269240108788        4.98401930777662
H           -4.02982244612007        4.89139815039790        3.30804524935251
H           -0.81169244508796        2.11563211039695        4.07206916922144
H            0.48740648279946        0.81501296520441        2.66899114664321
H            3.54550565673753        1.87665711381700       -0.56163706899726
H            2.93483078778237        2.96867741651503        0.71089624812286
H            3.71439746727155        1.43197969809874        1.15608441529724
H            5.71135861114931       -0.59256114757141       -0.37958568434246
H            4.87062610098947       -2.16274288711316       -0.33133328979440
H            4.72385803384515       -1.03183787895319        1.03972716258683
H            0.41452865140870       -3.57817086460094       -0.51229541997744
H            1.72873509883153       -4.20500327058130       -2.32365241449403
H            3.42620580324512       -4.70525570215930       -2.11759683949533
H            2.27406201554222       -4.91923258271305       -0.77715693963980
