66
 energy: -102.676336232248 gnorm: 0.000652001855 xtb: 6.7.1 (edcfbbe)
C           -5.11795164218877       -0.81254995423129       -0.87610884966955
C           -6.16301000417111        0.25229985749681       -1.18839028615996
C           -5.55357339229306        1.64438139715723       -1.41458372214808
C           -4.83304704878271        2.12985810373904       -0.20919213931023
N           -5.37598476859910        2.74145333373828        0.82183666270668
C           -4.39708509248479        2.97729541181489        1.72574382342002
C           -4.64270274569732        3.65415236701488        3.02182261722570
C           -3.19663468693761        2.49189943690142        1.23723020719154
N           -3.50981863308864        1.95569578335834       -0.00108142624450
N           -2.54692458797126        1.38617088091692       -0.78259232984451
C           -1.27891998509036        1.32345952298389       -0.29928428328981
C           -0.24683035777748        0.67313936597387       -1.12694395926211
C           -0.46519236336287        0.06389758083336       -2.38122128184368
C            0.60011091580671       -0.56076525131763       -3.03038045115491
C            1.86179151654240       -0.58135751793648       -2.46799528981152
C            2.08007332670498        0.04163060501988       -1.25494765733568
S            3.72497893589894       -0.02632228787754       -0.54616285453643
O            4.66772126477218       -0.16128322460611       -1.61916403816193
N            3.61214088298865       -1.51545386595807        0.22011559648168
C            2.98372012450340       -1.47552749932624        1.52555681139645
C            3.95955620520930       -1.02327297264867        2.61365165881699
N            5.12289737278878       -1.89379043284112        2.59547431844620
C            5.78971042581829       -1.80895745359289        1.31001784708859
C            4.82989923902482       -2.30145154862234        0.22754330226388
C            6.00090456865608       -1.73820245644818        3.73883225916453
C            6.70282866724702       -0.38435057572051        3.88468349820159
O            3.88311077234446        1.07091692888585        0.36337904509675
C            1.04400985644337        0.66178943080144       -0.59602048333747
O           -1.71650607805960        0.11079554002251       -2.92021777946034
C           -1.93766409145814       -0.36424590636007       -4.24410930552504
C           -3.36361165105690       -0.00717956470078       -4.63413390654264
N           -0.92913539852080        1.78745860850120        0.84779633478010
C           -1.82269207312583        2.41305979865538        1.71557425823654
O           -1.45362238983731        2.83990744858434        2.78735509683968
H           -5.59629599860469       -1.78192674026054       -0.75863939672717
H           -4.38404838156801       -0.89412220035731       -1.67657476540900
H           -4.59695935658845       -0.58377114212467        0.05077726691477
H           -6.86742303481506        0.31768433934332       -0.35853564209816
H           -6.72013128686557       -0.03287137437855       -2.08329503922789
H           -4.87452754137407        1.62091512973446       -2.27144373421513
H           -6.35806362833160        2.34796335053156       -1.63094681655718
H           -5.11660018220543        4.61919749028787        2.85433958256042
H           -3.69855431669938        3.78938724335252        3.54182943367637
H           -5.31387884762922        3.05464559360443        3.63468995556528
H           -2.81257580390375        0.98728895618529       -1.67358852499594
H            0.44822973424776       -1.04232054572078       -3.98234106257309
H            2.68926612695562       -1.05866700597796       -2.96680117610324
H            2.13424062413777       -0.79496014841656        1.47043563081040
H            2.62540079013356       -2.48609109177879        1.74468517333120
H            3.47702395918773       -1.10348885799473        3.59010967630576
H            4.21813143015777        0.02905739193324        2.42475690870198
H            6.68019262621101       -2.44111326221273        1.33210576078994
H            6.08581850575651       -0.77710550892384        1.05397308119170
H            4.55356357078905       -3.34304487636865        0.41373515946906
H            5.28117871884158       -2.20583999533216       -0.75945964344888
H            6.75453914059365       -2.52902209048634        3.67061919089926
H            5.39667498488952       -1.92797721026826        4.63092429287421
H            7.31746621545413       -0.38982005763089        4.78134522266236
H            5.97720601794413        0.42027040406145        3.96956041007233
H            7.34400735264728       -0.18636996637853        3.02948102301834
H            1.20874990187250        1.16934128502070        0.34140569128303
H           -1.79544754625521       -1.45131646592914       -4.27754206710513
H           -1.23027416162290        0.11413622920106       -4.93133084898015
H           -3.50844116590144        1.06960193704149       -4.58975110245792
H           -4.07584386752773       -0.48954680688916       -3.96942060898286
H           -3.55507166414537       -0.34236489307640       -5.64898632498747
