----- Optimization -----
      -----------------------------------------------------------      
     |                   =====================                   |     
     |                           x T B                           |     
     |                   =====================                   |     
     |                         S. Grimme                         |     
     |          Mulliken Center for Theoretical Chemistry        |     
     |                    University of Bonn                     |     
      -----------------------------------------------------------      

   * xtb version 6.7.1 (edcfbbe) compiled by 'conda@3ef47c1a292c' on 2024-11-25

   xtb is free software: you can redistribute it and/or modify it under
   the terms of the GNU Lesser General Public License as published by
   the Free Software Foundation, either version 3 of the License, or
   (at your option) any later version.
   
   xtb is distributed in the hope that it will be useful,
   but WITHOUT ANY WARRANTY; without even the implied warranty of
   MERCHANTABILITY or FITNESS FOR A PARTICULAR PURPOSE.  See the
   GNU Lesser General Public License for more details.
   
   Cite this work as:
   * C. Bannwarth, E. Caldeweyher, S. Ehlert, A. Hansen, P. Pracht,
     J. Seibert, S. Spicher, S. Grimme, WIREs Comput. Mol. Sci., 2020, 11,
     e01493. DOI: 10.1002/wcms.1493
   
   for GFN2-xTB:
   * C. Bannwarth, S. Ehlert and S. Grimme., J. Chem. Theory Comput., 2019,
     15, 1652-1671. DOI: 10.1021/acs.jctc.8b01176
   for GFN1-xTB:
   * S. Grimme, C. Bannwarth, P. Shushkov, J. Chem. Theory Comput., 2017,
     13, 1989-2009. DOI: 10.1021/acs.jctc.7b00118
   for GFN0-xTB:
   * P. Pracht, E. Caldeweyher, S. Ehlert, S. Grimme, ChemRxiv, 2019, preprint.
     DOI: 10.26434/chemrxiv.8326202.v1
   for GFN-FF:
   * S. Spicher and S. Grimme, Angew. Chem. Int. Ed., 2020, 59, 15665-15673.
     DOI: 10.1002/anie.202004239
   
   for ALPB and GBSA implicit solvation:
   * S. Ehlert, M. Stahn, S. Spicher, S. Grimme, J. Chem. Theory Comput.,
     2021, 17, 4250-4261. DOI: 10.1021/acs.jctc.1c00471
   
   for ddCOSMO and CPCM-X implicit solvation:
   * M. Stahn, S. Ehlert, S. Grimme, J. Phys. Chem. A,
     2023, XX, XXXX-XXXX. DOI: 10.1021/acs.jpca.3c04382
   
   for DFT-D4:
   * E. Caldeweyher, C. Bannwarth and S. Grimme, J. Chem. Phys., 2017,
     147, 034112. DOI: 10.1063/1.4993215
   * E. Caldeweyher, S. Ehlert, A. Hansen, H. Neugebauer, S. Spicher,
     C. Bannwarth and S. Grimme, J. Chem. Phys., 2019, 150, 154122.
     DOI: 10.1063/1.5090222
   * E. Caldeweyher, J.-M. Mewes, S. Ehlert and S. Grimme, Phys. Chem. Chem. Phys.
     2020, 22, 8499-8512. DOI: 10.1039/D0CP00502A
   
   for sTDA-xTB:
   * S. Grimme and C. Bannwarth, J. Chem. Phys., 2016, 145, 054103.
     DOI: 10.1063/1.4959605
   
   in the mass-spec context:
   * V. Asgeirsson, C. Bauer and S. Grimme, Chem. Sci., 2017, 8, 4879.
     DOI: 10.1039/c7sc00601b
   * J. Koopman and S. Grimme, ACS Omega 2019, 4, 12, 15120-15133.
     DOI: 10.1021/acsomega.9b02011
   
   for metadynamics refer to:
   * S. Grimme, J. Chem. Theory Comput., 2019, 155, 2847-2862
     DOI: 10.1021/acs.jctc.9b00143
   
   for SPH calculations refer to:
   * S. Spicher and S. Grimme, J. Chem. Theory Comput., 2021, 17, 1701-1714
     DOI: 10.1021/acs.jctc.0c01306
   
   for ONIOM refer to:
   * C. Plett, A. Katbashev, S. Ehlert, S. Grimme, M. Bursch,
     Phys. Chem. Chem. Phys., 2023, 25, 17860-17868. DOI: 10.1039/D3CP02178E
   
   for DIPRO refer to:
   * J. Kohn, N. Gildemeister, S. Grimme, D. Fazzi, A. Hansen,
     J. Chem. Phys., 2023, just accepted.
   
   for PTB refer to:
   * S. Grimme, M. Mueller, A. Hansen, J. Chem. Phys., 2023, 158, 124111.
     DOI: 10.1063/5.0137838
   
   with help from (in alphabetical order)
   P. Atkinson, C. Bannwarth, F. Bohle, G. Brandenburg, E. Caldeweyher
   M. Checinski, S. Dohm, S. Ehlert, S. Ehrlich, I. Gerasimov, C. Hölzer
   A. Katbashev, J. Kohn, J. Koopman, C. Lavigne, S. Lehtola, F. März, M. Müller,
   F. Musil, H. Neugebauer, J. Pisarek, C. Plett, P. Pracht, F. Pultar,
   J. Seibert, P. Shushkov, S. Spicher, M. Stahn, M. Steiner, T. Strunk,
   J. Stückrath, T. Rose, and J. Unsleber
   
 * started run on 2025/05/15 at 16:28:15.543     
   ID    Z sym.   atoms
    1   17 Cl     1
    2    6 C      2-16, 18, 19, 21-25
    3    7 N      17, 20
    4    1 H      26-42

           -------------------------------------------------
          |                Calculation Setup                |
           -------------------------------------------------

          program call               : xtb /rds/general/user/hgt20/home/callum/QDESCP/Clotrimazole_rdkit_conf_2/Clotrimazole_rdkit_conf_2.xyz --opt normal --acc 1 --gfn 2 --chrg 0 --uhf 0 -P 1
          hostname                   : login-c
          coordinate file            : /rds/general/user/hgt20/home/callum/QDESCP/Clotrimazole_rdkit_conf_2/Clotrimazole_rdkit_conf_2.xyz
          omp threads                :                     1


           -------------------------------------------------
          |                 G F N 2 - x T B                 |
           -------------------------------------------------

        Reference                      10.1021/acs.jctc.8b01176
      * Hamiltonian:
        H0-scaling (s, p, d)           1.850000    2.230000    2.230000
        zeta-weighting                 0.500000
      * Dispersion:
        s8                             2.700000
        a1                             0.520000
        a2                             5.000000
        s9                             5.000000
      * Repulsion:
        kExp                           1.500000    1.000000
        rExp                           1.000000
      * Coulomb:
        alpha                          2.000000
        third order                    shell-resolved
        anisotropic                    true
        a3                             3.000000
        a5                             4.000000
        cn-shift                       1.200000
        cn-exp                         4.000000
        max-rad                        5.000000


          ...................................................
          :                      SETUP                      :
          :.................................................:
          :  # basis functions                 123          :
          :  # atomic orbitals                 122          :
          :  # shells                           68          :
          :  # electrons                       122          :
          :  max. iterations                   250          :
          :  Hamiltonian                  GFN2-xTB          :
          :  restarted?                      false          :
          :  GBSA solvation                  false          :
          :  PC potential                    false          :
          :  electronic temp.          300.0000000     K    :
          :  accuracy                    1.0000000          :
          :  -> integral cutoff          0.2500000E+02      :
          :  -> integral neglect         0.1000000E-07      :
          :  -> SCF convergence          0.1000000E-05 Eh   :
          :  -> wf. convergence          0.1000000E-03 e    :
          :  Broyden damping             0.4000000          :
          :  net charge                          0          :
          :  unpaired electrons                  0          :
          ...................................................

 iter      E             dE          RMSdq      gap      omega  full diag
   1    -67.0835077 -0.670835E+02  0.421E+00    3.95       0.0  T
   2    -67.1590360 -0.755283E-01  0.260E+00    3.00       1.0  T
   3    -67.1508297  0.820632E-02  0.116E+00    3.28       1.0  T
   4    -67.1650062 -0.141766E-01  0.411E-01    3.07       1.0  T
   5    -67.1702983 -0.529205E-02  0.972E-02    3.10       1.0  T
   6    -67.1704327 -0.134403E-03  0.510E-02    3.07       1.0  T
   7    -67.1704717 -0.390655E-04  0.358E-02    3.08       1.0  T
   8    -67.1704886 -0.168086E-04  0.240E-02    3.07       1.0  T
   9    -67.1704954 -0.685599E-05  0.181E-02    3.08       1.0  T
  10    -67.1705015 -0.612645E-05  0.105E-02    3.08       1.5  T
  11    -67.1705034 -0.182398E-05  0.432E-03    3.08       3.6  T
  12    -67.1705039 -0.587495E-06  0.137E-03    3.08      11.3  T
  13    -67.1705040 -0.238398E-07  0.733E-04    3.08      21.1  T
  14    -67.1705040 -0.424077E-08  0.498E-04    3.08      31.0  T

   *** convergence criteria satisfied after 14 iterations ***

         #    Occupation            Energy/Eh            Energy/eV
      -------------------------------------------------------------
         1        2.0000           -1.0599351             -28.8423
       ...           ...                  ...                  ...
        55        2.0000           -0.4119132             -11.2087
        56        2.0000           -0.4094436             -11.1415
        57        2.0000           -0.4060179             -11.0483
        58        2.0000           -0.4023511             -10.9485
        59        2.0000           -0.4010320             -10.9126
        60        2.0000           -0.3738657             -10.1734
        61        2.0000           -0.3679934             -10.0136 (HOMO)
        62                         -0.2547722              -6.9327 (LUMO)
        63                         -0.2499176              -6.8006
        64                         -0.2408200              -6.5530
        65                         -0.2373437              -6.4585
        66                         -0.2349709              -6.3939
       ...                                ...                  ...
       122                          0.6117759              16.6473
      -------------------------------------------------------------
                  HL-Gap            0.1132212 Eh            3.0809 eV
             Fermi-level           -0.3113828 Eh           -8.4732 eV

 SCC (total)                   0 d,  0 h,  0 min,  0.075 sec
 SCC setup                      ...        0 min,  0.000 sec (  0.578%)
 Dispersion                     ...        0 min,  0.001 sec (  0.734%)
 classical contributions        ...        0 min,  0.000 sec (  0.198%)
 integral evaluation            ...        0 min,  0.010 sec ( 13.364%)
 iterations                     ...        0 min,  0.036 sec ( 48.050%)
 molecular gradient             ...        0 min,  0.028 sec ( 36.798%)
 printout                       ...        0 min,  0.000 sec (  0.267%)

         :::::::::::::::::::::::::::::::::::::::::::::::::::::
         ::                     SUMMARY                     ::
         :::::::::::::::::::::::::::::::::::::::::::::::::::::
         :: total energy             -66.143537501475 Eh    ::
         :: gradient norm              0.053669839310 Eh/a0 ::
         :: HOMO-LUMO gap              3.080905688148 eV    ::
         ::.................................................::
         :: SCC energy               -67.168890473144 Eh    ::
         :: -> isotropic ES            0.017756302544 Eh    ::
         :: -> anisotropic ES          0.004119274556 Eh    ::
         :: -> anisotropic XC          0.045246376652 Eh    ::
         :: -> dispersion             -0.058589670812 Eh    ::
         :: repulsion energy           1.025352971668 Eh    ::
         :: add. restraining           0.000000000000 Eh    ::
         :: total charge              -0.000000000000 e     ::
         :::::::::::::::::::::::::::::::::::::::::::::::::::::

      ----------------------------------------------------------- 
     |                   =====================                   |
     |                        A N C O P T                        |
     |                   =====================                   |
     |               Approximate Normal Coordinate               |
     |                Rational Function Optimizer                |
      ----------------------------------------------------------- 
      ----------------------------------------------------------- 
     |                   =====================                   |
     |                        A N C O P T                        |
     |                   =====================                   |
     |               Approximate Normal Coordinate               |
     |                Rational Function Optimizer                |
      ----------------------------------------------------------- 

          ...................................................
          :                      SETUP                      :
          :.................................................:
          :   optimization level            normal          :
          :   max. optcycles                   200          :
          :   ANC micro-cycles                  20          :
          :   degrees of freedom               120          :
          :.................................................:
          :   RF solver                   davidson          :
          :   write xtbopt.log                true          :
          :   linear?                        false          :
          :   energy convergence         0.5000000E-05 Eh   :
          :   grad. convergence          0.1000000E-02 Eh/α :
          :   maxmium RF displ.          1.0000000          :
          :   Hlow (freq-cutoff)         0.1000000E-01      :
          :   Hmax (freq-cutoff)         5.0000000          :
          :   S6 in model hess.         20.0000000          :
          ...................................................

generating ANC from exact Hessian ...
Using Lindh-Hessian (1995)
 Shifting diagonal of input Hessian by    9.4148126932720403E-003
 Lowest  eigenvalues of input Hessian
    0.000000    0.000000    0.000000    0.000000    0.000000    0.000000
    0.010000    0.010034    0.010321    0.010396    0.010583    0.010741
    0.010942    0.011143    0.011815    0.015337    0.016274    0.016834
 Highest eigenvalues
    1.918209    1.920153    1.922365    1.928661    1.930687    2.048940


........................................................................
.............................. CYCLE    1 ..............................
........................................................................

 iter      E             dE          RMSdq      gap      omega  full diag
   1    -67.1705040 -0.671705E+02  0.344E-04    3.08       0.0  T
   2    -67.1705040 -0.679648E-09  0.283E-04    3.08      54.6  T
   3    -67.1705040 -0.364395E-09  0.231E-04    3.08      66.8  T
     SCC iter.                  ...        0 min,  0.008 sec
     gradient                   ...        0 min,  0.034 sec
 * total energy  :   -66.1435375 Eh     change       -0.3513037E-08 Eh
   gradient norm :     0.0536710 Eh/α   predicted     0.0000000E+00 (-100.00%)
   displ. norm   :     0.5123610 α      lambda       -0.1855606E-01
   maximum displ.:     0.2680962 α      in ANC's #20, #19, #15, ...

........................................................................
.............................. CYCLE    2 ..............................
........................................................................

 iter      E             dE          RMSdq      gap      omega  full diag
   1    -67.2452552 -0.672453E+02  0.188E-01    3.14       0.0  T
   2    -67.2453323 -0.771547E-04  0.124E-01    3.09       1.0  T
   3    -67.2452038  0.128500E-03  0.683E-02    3.13       1.0  T
   4    -67.2454305 -0.226698E-03  0.153E-02    3.11       1.0  T
   5    -67.2454388 -0.829306E-05  0.459E-03    3.11       3.4  T
   6    -67.2454390 -0.167892E-06  0.312E-03    3.11       4.9  T
   7    -67.2454391 -0.123667E-06  0.196E-03    3.11       7.9  T
   8    -67.2454391 -0.385754E-07  0.144E-03    3.11      10.7  T
   9    -67.2454392 -0.368106E-07  0.807E-04    3.11      19.1  T
  10    -67.2454392 -0.124944E-07  0.276E-04    3.11      56.0  T
     SCC iter.                  ...        0 min,  0.025 sec
     gradient                   ...        0 min,  0.028 sec
 * total energy  :   -66.1570418 Eh     change       -0.1350429E-01 Eh
   gradient norm :     0.0213305 Eh/α   predicted    -0.1171371E-01 ( -13.26%)
   displ. norm   :     0.5083294 α      lambda       -0.8030952E-02
   maximum displ.:     0.2688392 α      in ANC's #20, #19, #23, ...

........................................................................
.............................. CYCLE    3 ..............................
........................................................................

 iter      E             dE          RMSdq      gap      omega  full diag
   1    -67.2903841 -0.672904E+02  0.149E-01    3.13       0.0  T
   2    -67.2904743 -0.901333E-04  0.107E-01    3.09       1.0  T
   3    -67.2904832 -0.895889E-05  0.536E-02    3.12       1.0  T
   4    -67.2905696 -0.863272E-04  0.172E-02    3.11       1.0  T
   5    -67.2905802 -0.106300E-04  0.371E-03    3.11       4.2  T
   6    -67.2905804 -0.187833E-06  0.234E-03    3.11       6.6  T
   7    -67.2905804 -0.501321E-07  0.139E-03    3.11      11.1  T
   8    -67.2905804 -0.165942E-07  0.982E-04    3.11      15.7  T
   9    -67.2905805 -0.137783E-07  0.528E-04    3.11      29.2  T
     SCC iter.                  ...        0 min,  0.022 sec
     gradient                   ...        0 min,  0.028 sec
 * total energy  :   -66.1619990 Eh     change       -0.4957251E-02 Eh
   gradient norm :     0.0098073 Eh/α   predicted    -0.5053070E-02 (   1.93%)
   displ. norm   :     0.2328518 α      lambda       -0.1155808E-02
   maximum displ.:     0.1204952 α      in ANC's #19, #20, #15, ...

........................................................................
.............................. CYCLE    4 ..............................
........................................................................

 iter      E             dE          RMSdq      gap      omega  full diag
   1    -67.2946851 -0.672947E+02  0.857E-02    3.11       0.0  T
   2    -67.2946963 -0.111603E-04  0.537E-02    3.10       1.0  T
   3    -67.2946632  0.331170E-04  0.268E-02    3.11       1.0  T
   4    -67.2947047 -0.415115E-04  0.603E-03    3.11       2.6  T
   5    -67.2947061 -0.143222E-05  0.208E-03    3.11       7.4  T
   6    -67.2947062 -0.251005E-07  0.155E-03    3.11       9.9  T
   7    -67.2947062 -0.319398E-07  0.935E-04    3.11      16.5  T
   8    -67.2947062 -0.101266E-07  0.583E-04    3.11      26.4  T
     SCC iter.                  ...        0 min,  0.020 sec
     gradient                   ...        0 min,  0.033 sec
 * total energy  :   -66.1626498 Eh     change       -0.6507461E-03 Eh
   gradient norm :     0.0056582 Eh/α   predicted    -0.6092451E-03 (  -6.38%)
   displ. norm   :     0.0967646 α      lambda       -0.1754354E-03
   maximum displ.:     0.0458433 α      in ANC's #3, #9, #2, ...

........................................................................
.............................. CYCLE    5 ..............................
........................................................................

 iter      E             dE          RMSdq      gap      omega  full diag
   1    -67.2939019 -0.672939E+02  0.374E-02    3.11       0.0  T
   2    -67.2939022 -0.392640E-06  0.220E-02    3.11       1.0  T
   3    -67.2939019  0.304872E-06  0.328E-03    3.10       4.7  T
   4    -67.2939024 -0.416099E-06  0.113E-03    3.10      13.6  T
   5    -67.2939024 -0.194603E-07  0.800E-04    3.10      19.3  T
   6    -67.2939024 -0.424173E-08  0.553E-04    3.10      27.9  T
     SCC iter.                  ...        0 min,  0.015 sec
     gradient                   ...        0 min,  0.028 sec
 * total energy  :   -66.1627638 Eh     change       -0.1140546E-03 Eh
   gradient norm :     0.0028934 Eh/α   predicted    -0.8857672E-04 ( -22.34%)
   displ. norm   :     0.1069128 α      lambda       -0.8733310E-04
   maximum displ.:     0.0635885 α      in ANC's #3, #7, #2, ...

........................................................................
.............................. CYCLE    6 ..............................
........................................................................

 iter      E             dE          RMSdq      gap      omega  full diag
   1    -67.2926444 -0.672926E+02  0.333E-02    3.11       0.0  T
   2    -67.2926448 -0.391587E-06  0.196E-02    3.11       1.0  T
   3    -67.2926418  0.301673E-05  0.745E-03    3.11       2.1  T
   4    -67.2926452 -0.344037E-05  0.106E-03    3.11      14.6  T
   5    -67.2926453 -0.238837E-07  0.654E-04    3.11      23.6  T
   6    -67.2926453 -0.377152E-08  0.400E-04    3.11      38.6  T
     SCC iter.                  ...        0 min,  0.015 sec
     gradient                   ...        0 min,  0.031 sec
 * total energy  :   -66.1628254 Eh     change       -0.6158608E-04 Eh
   gradient norm :     0.0017752 Eh/α   predicted    -0.4426066E-04 ( -28.13%)
   displ. norm   :     0.1758069 α      lambda       -0.5828352E-04
   maximum displ.:     0.1121239 α      in ANC's #3, #7, #2, ...

........................................................................
.............................. CYCLE    7 ..............................
........................................................................

 iter      E             dE          RMSdq      gap      omega  full diag
   1    -67.2920331 -0.672920E+02  0.547E-02    3.11       0.0  T
   2    -67.2920338 -0.686328E-06  0.321E-02    3.11       1.0  T
   3    -67.2920300  0.385889E-05  0.869E-03    3.11       1.8  T
   4    -67.2920343 -0.438395E-05  0.132E-03    3.11      11.7  T
   5    -67.2920344 -0.388394E-07  0.792E-04    3.11      19.5  T
   6    -67.2920344 -0.560570E-08  0.512E-04    3.11      30.2  T
     SCC iter.                  ...        0 min,  0.015 sec
     gradient                   ...        0 min,  0.028 sec
 * total energy  :   -66.1628874 Eh     change       -0.6197152E-04 Eh
   gradient norm :     0.0030921 Eh/α   predicted    -0.2954396E-04 ( -52.33%)
   displ. norm   :     0.1047022 α      lambda       -0.4833401E-04
   maximum displ.:     0.0723534 α      in ANC's #3, #2, #7, ...

........................................................................
.............................. CYCLE    8 ..............................
........................................................................

 iter      E             dE          RMSdq      gap      omega  full diag
   1    -67.2926099 -0.672926E+02  0.348E-02    3.11       0.0  T
   2    -67.2926101 -0.131303E-06  0.204E-02    3.11       1.0  T
   3    -67.2926099  0.144733E-06  0.203E-03    3.11       7.6  T
   4    -67.2926101 -0.206647E-06  0.600E-04    3.11      25.7  T
   5    -67.2926101 -0.309562E-08  0.388E-04    3.11      39.8  T
     SCC iter.                  ...        0 min,  0.023 sec
     gradient                   ...        0 min,  0.028 sec
 * total energy  :   -66.1629300 Eh     change       -0.4256773E-04 Eh
   gradient norm :     0.0024522 Eh/α   predicted    -0.2443258E-04 ( -42.60%)
   displ. norm   :     0.1502327 α      lambda       -0.6380809E-04
   maximum displ.:     0.1065241 α      in ANC's #3, #4, #2, ...

........................................................................
.............................. CYCLE    9 ..............................
........................................................................

 iter      E             dE          RMSdq      gap      omega  full diag
   1    -67.2931437 -0.672931E+02  0.516E-02    3.11       0.0  T
   2    -67.2931439 -0.240291E-06  0.302E-02    3.11       1.0  T
   3    -67.2931431  0.790343E-06  0.381E-03    3.11       4.1  T
   4    -67.2931441 -0.946694E-06  0.786E-04    3.11      19.6  T
   5    -67.2931441 -0.706819E-08  0.488E-04    3.11      31.6  T
     SCC iter.                  ...        0 min,  0.012 sec
     gradient                   ...        0 min,  0.028 sec
 * total energy  :   -66.1629818 Eh     change       -0.5186588E-04 Eh
   gradient norm :     0.0012808 Eh/α   predicted    -0.3262653E-04 ( -37.09%)
   displ. norm   :     0.2068192 α      lambda       -0.4309070E-04
   maximum displ.:     0.1542838 α      in ANC's #3, #4, #2, ...

........................................................................
.............................. CYCLE   10 ..............................
........................................................................

 iter      E             dE          RMSdq      gap      omega  full diag
   1    -67.2935047 -0.672935E+02  0.718E-02    3.11       0.0  T
   2    -67.2935051 -0.396869E-06  0.421E-02    3.11       1.0  T
   3    -67.2935034  0.167101E-05  0.565E-03    3.11       2.7  T
   4    -67.2935054 -0.197863E-05  0.108E-03    3.11      14.3  T
   5    -67.2935054 -0.934654E-08  0.734E-04    3.11      21.0  T
   6    -67.2935054 -0.766966E-08  0.426E-04    3.11      36.2  T
     SCC iter.                  ...        0 min,  0.015 sec
     gradient                   ...        0 min,  0.028 sec
 * total energy  :   -66.1630303 Eh     change       -0.4842922E-04 Eh
   gradient norm :     0.0017591 Eh/α   predicted    -0.2195811E-04 ( -54.66%)
   displ. norm   :     0.1071388 α      lambda       -0.2062849E-04
   maximum displ.:     0.0861582 α      in ANC's #3, #4, #2, ...

........................................................................
.............................. CYCLE   11 ..............................
........................................................................

 iter      E             dE          RMSdq      gap      omega  full diag
   1    -67.2936832 -0.672937E+02  0.388E-02    3.11       0.0  T
   2    -67.2936833 -0.906074E-07  0.228E-02    3.11       1.0  T
   3    -67.2936832  0.310076E-07  0.149E-03    3.11      10.4  T
   4    -67.2936833 -0.811475E-07  0.622E-04    3.11      24.8  T
   5    -67.2936833 -0.257452E-08  0.443E-04    3.11      34.9  T
     SCC iter.                  ...        0 min,  0.012 sec
     gradient                   ...        0 min,  0.031 sec
 * total energy  :   -66.1630579 Eh     change       -0.2765704E-04 Eh
   gradient norm :     0.0014901 Eh/α   predicted    -0.1036768E-04 ( -62.51%)
   displ. norm   :     0.0997486 α      lambda       -0.2235617E-04
   maximum displ.:     0.0789405 α      in ANC's #3, #4, #5, ...

........................................................................
.............................. CYCLE   12 ..............................
........................................................................

 iter      E             dE          RMSdq      gap      omega  full diag
   1    -67.2936656 -0.672937E+02  0.379E-02    3.12       0.0  T
   2    -67.2936657 -0.910522E-07  0.223E-02    3.12       1.0  T
   3    -67.2936654  0.288573E-06  0.224E-03    3.11       6.9  T
   4    -67.2936658 -0.346383E-06  0.574E-04    3.12      26.9  T
   5    -67.2936658 -0.590262E-08  0.402E-04    3.12      38.4  T
     SCC iter.                  ...        0 min,  0.012 sec
     gradient                   ...        0 min,  0.028 sec
 * total energy  :   -66.1630865 Eh     change       -0.2857628E-04 Eh
   gradient norm :     0.0008584 Eh/α   predicted    -0.1122798E-04 ( -60.71%)
   displ. norm   :     0.1240810 α      lambda       -0.2434080E-04
   maximum displ.:     0.0946525 α      in ANC's #3, #4, #5, ...

........................................................................
.............................. CYCLE   13 ..............................
........................................................................

 iter      E             dE          RMSdq      gap      omega  full diag
   1    -67.2933200 -0.672933E+02  0.473E-02    3.12       0.0  T
   2    -67.2933201 -0.122546E-06  0.277E-02    3.12       1.0  T
   3    -67.2933197  0.440053E-06  0.284E-03    3.12       5.4  T
   4    -67.2933202 -0.535180E-06  0.643E-04    3.12      24.0  T
   5    -67.2933202 -0.221961E-08  0.437E-04    3.12      35.3  T
     SCC iter.                  ...        0 min,  0.012 sec
     gradient                   ...        0 min,  0.037 sec
 * total energy  :   -66.1631159 Eh     change       -0.2937424E-04 Eh
   gradient norm :     0.0009163 Eh/α   predicted    -0.1225676E-04 ( -58.27%)
   displ. norm   :     0.1226144 α      lambda       -0.2003076E-04
   maximum displ.:     0.0942415 α      in ANC's #3, #4, #5, ...

........................................................................
.............................. CYCLE   14 ..............................
........................................................................

 iter      E             dE          RMSdq      gap      omega  full diag
   1    -67.2931500 -0.672931E+02  0.448E-02    3.12       0.0  T
   2    -67.2931501 -0.112835E-06  0.263E-02    3.12       1.0  T
   3    -67.2931500  0.136227E-06  0.191E-03    3.12       8.1  T
   4    -67.2931502 -0.204474E-06  0.636E-04    3.12      24.2  T
   5    -67.2931502 -0.143962E-08  0.412E-04    3.12      37.4  T
     SCC iter.                  ...        0 min,  0.012 sec
     gradient                   ...        0 min,  0.028 sec
 * total energy  :   -66.1631422 Eh     change       -0.2636319E-04 Eh
   gradient norm :     0.0010791 Eh/α   predicted    -0.1008439E-04 ( -61.75%)
   displ. norm   :     0.1333579 α      lambda       -0.2147353E-04
   maximum displ.:     0.1015194 α      in ANC's #3, #4, #2, ...

........................................................................
.............................. CYCLE   15 ..............................
........................................................................

 iter      E             dE          RMSdq      gap      omega  full diag
   1    -67.2932093 -0.672932E+02  0.468E-02    3.12       0.0  T
   2    -67.2932094 -0.153266E-06  0.274E-02    3.12       1.0  T
   3    -67.2932094  0.533103E-08  0.159E-03    3.12       9.7  T
   4    -67.2932095 -0.823749E-07  0.721E-04    3.12      21.4  T
   5    -67.2932095 -0.249699E-08  0.394E-04    3.12      39.1  T
     SCC iter.                  ...        0 min,  0.012 sec
     gradient                   ...        0 min,  0.031 sec
 * total energy  :   -66.1631721 Eh     change       -0.2982174E-04 Eh
   gradient norm :     0.0010370 Eh/α   predicted    -0.1082400E-04 ( -63.70%)
   displ. norm   :     0.1840807 α      lambda       -0.3079585E-04
   maximum displ.:     0.1374474 α      in ANC's #3, #2, #4, ...

........................................................................
.............................. CYCLE   16 ..............................
........................................................................

 iter      E             dE          RMSdq      gap      omega  full diag
   1    -67.2930039 -0.672930E+02  0.618E-02    3.12       0.0  T
   2    -67.2930043 -0.331642E-06  0.361E-02    3.12       1.0  T
   3    -67.2930043 -0.298675E-07  0.215E-03    3.12       7.2  T
   4    -67.2930044 -0.125389E-06  0.103E-03    3.12      14.9  T
   5    -67.2930044 -0.636182E-08  0.519E-04    3.12      29.7  T
   6    -67.2930044 -0.239626E-08  0.357E-04    3.12      43.2  T
     SCC iter.                  ...        0 min,  0.015 sec
     gradient                   ...        0 min,  0.028 sec
 * total energy  :   -66.1632149 Eh     change       -0.4280721E-04 Eh
   gradient norm :     0.0009685 Eh/α   predicted    -0.1563009E-04 ( -63.49%)
   displ. norm   :     0.2687943 α      lambda       -0.4388921E-04
   maximum displ.:     0.2001571 α      in ANC's #3, #2, #4, ...

........................................................................
.............................. CYCLE   17 ..............................
........................................................................

 iter      E             dE          RMSdq      gap      omega  full diag
   1    -67.2927650 -0.672928E+02  0.894E-02    3.13       0.0  T
   2    -67.2927657 -0.715409E-06  0.522E-02    3.13       1.0  T
   3    -67.2927658 -0.107078E-06  0.300E-03    3.12       5.1  T
   4    -67.2927660 -0.224786E-06  0.159E-03    3.12       9.7  T
   5    -67.2927661 -0.177635E-07  0.836E-04    3.12      18.5  T
   6    -67.2927661 -0.661638E-08  0.580E-04    3.12      26.6  T
     SCC iter.                  ...        0 min,  0.015 sec
     gradient                   ...        0 min,  0.031 sec
 * total energy  :   -66.1632743 Eh     change       -0.5938860E-04 Eh
   gradient norm :     0.0011520 Eh/α   predicted    -0.2265013E-04 ( -61.86%)
   displ. norm   :     0.3463809 α      lambda       -0.5222149E-04
   maximum displ.:     0.2594313 α      in ANC's #3, #2, #4, ...

........................................................................
.............................. CYCLE   18 ..............................
........................................................................

 iter      E             dE          RMSdq      gap      omega  full diag
   1    -67.2923079 -0.672923E+02  0.115E-01    3.13       0.0  T
   2    -67.2923091 -0.118295E-05  0.672E-02    3.13       1.0  T
   3    -67.2923091 -0.525289E-07  0.439E-03    3.12       3.5  T
   4    -67.2923096 -0.511916E-06  0.211E-03    3.12       7.3  T
   5    -67.2923097 -0.269203E-07  0.111E-03    3.13      13.9  T
   6    -67.2923097 -0.115258E-07  0.791E-04    3.13      19.5  T
   7    -67.2923097 -0.600021E-08  0.599E-04    3.13      25.8  T
     SCC iter.                  ...        0 min,  0.019 sec
     gradient                   ...        0 min,  0.028 sec
 * total energy  :   -66.1633423 Eh     change       -0.6803531E-04 Eh
   gradient norm :     0.0015821 Eh/α   predicted    -0.2750373E-04 ( -59.57%)
   displ. norm   :     0.4173634 α      lambda       -0.5791190E-04
   maximum displ.:     0.3160708 α      in ANC's #3, #2, #4, ...

........................................................................
.............................. CYCLE   19 ..............................
........................................................................

 iter      E             dE          RMSdq      gap      omega  full diag
   1    -67.2914580 -0.672915E+02  0.140E-01    3.13       0.0  T
   2    -67.2914596 -0.157454E-05  0.821E-02    3.13       1.0  T
   3    -67.2914597 -0.131426E-06  0.454E-03    3.12       3.4  T
   4    -67.2914603 -0.592639E-06  0.240E-03    3.13       6.4  T
   5    -67.2914603 -0.414966E-07  0.138E-03    3.13      11.2  T
   6    -67.2914604 -0.228161E-07  0.958E-04    3.13      16.1  T
   7    -67.2914604 -0.110988E-07  0.716E-04    3.13      21.5  T
     SCC iter.                  ...        0 min,  0.017 sec
     gradient                   ...        0 min,  0.028 sec
 * total energy  :   -66.1634152 Eh     change       -0.7294232E-04 Eh
   gradient norm :     0.0021693 Eh/α   predicted    -0.3119836E-04 ( -57.23%)
   displ. norm   :     0.3681865 α      lambda       -0.7161532E-04
   maximum displ.:     0.2827653 α      in ANC's #3, #2, #4, ...

........................................................................
.............................. CYCLE   20 ..............................
........................................................................

 iter      E             dE          RMSdq      gap      omega  full diag
   1    -67.2912603 -0.672913E+02  0.125E-01    3.13       0.0  T
   2    -67.2912614 -0.111362E-05  0.734E-02    3.13       1.0  T
   3    -67.2912614 -0.811985E-07  0.411E-03    3.13       3.8  T
   4    -67.2912619 -0.476792E-06  0.210E-03    3.13       7.3  T
   5    -67.2912619 -0.246134E-07  0.111E-03    3.13      14.0  T
   6    -67.2912620 -0.149883E-07  0.843E-04    3.13      18.3  T
   7    -67.2912620 -0.965015E-08  0.598E-04    3.13      25.8  T
     SCC iter.                  ...        0 min,  0.017 sec
     gradient                   ...        0 min,  0.028 sec
 * total energy  :   -66.1634775 Eh     change       -0.6224596E-04 Eh
   gradient norm :     0.0023715 Eh/α   predicted    -0.4066434E-04 ( -34.67%)
   displ. norm   :     0.6388787 α      lambda       -0.1135176E-03
   maximum displ.:     0.4950192 α      in ANC's #3, #2, #4, ...
 * RMSD in coord.:     0.5413080 α      energy gain  -0.1993997E-01 Eh

generating ANC from exact Hessian ...
Using Lindh-Hessian (1995)
 Shifting diagonal of input Hessian by    9.2711902599881268E-003
 Lowest  eigenvalues of input Hessian
    0.000000    0.000000    0.000000    0.000000    0.000000    0.000000
    0.010000    0.010024    0.010415    0.010507    0.010549    0.010776
    0.011063    0.011187    0.012070    0.016237    0.016991    0.017703
 Highest eigenvalues
    1.998751    2.011506    2.017087    2.021691    2.044518    2.177906


........................................................................
.............................. CYCLE   21 ..............................
........................................................................

 iter      E             dE          RMSdq      gap      omega  full diag
   1    -67.2889495 -0.672889E+02  0.219E-01    3.13       0.0  T
   2    -67.2889529 -0.339633E-05  0.128E-01    3.13       1.0  T
   3    -67.2889528  0.104016E-06  0.746E-03    3.12       2.1  T
   4    -67.2889546 -0.176842E-05  0.349E-03    3.12       4.4  T
   5    -67.2889547 -0.740227E-07  0.186E-03    3.13       8.3  T
   6    -67.2889547 -0.331865E-07  0.136E-03    3.13      11.3  T
   7    -67.2889547 -0.215300E-07  0.102E-03    3.13      15.2  T
   8    -67.2889547 -0.176687E-07  0.497E-04    3.13      31.1  T
   9    -67.2889548 -0.585347E-08  0.212E-04    3.13      72.9  T
     SCC iter.                  ...        0 min,  0.022 sec
     gradient                   ...        0 min,  0.028 sec
 * total energy  :   -66.1635617 Eh     change       -0.8426335E-04 Eh
   gradient norm :     0.0040202 Eh/α   predicted     0.0000000E+00 (-100.00%)
   displ. norm   :     0.0325095 α      lambda       -0.4704784E-04
   maximum displ.:     0.0142069 α      in ANC's #9, #3, #4, ...

........................................................................
.............................. CYCLE   22 ..............................
........................................................................

 iter      E             dE          RMSdq      gap      omega  full diag
   1    -67.2926537 -0.672927E+02  0.156E-02    3.13       0.0  T
   2    -67.2926539 -0.160201E-06  0.924E-03    3.13       1.7  T
   3    -67.2926536  0.222316E-06  0.283E-03    3.13       5.4  T
   4    -67.2926539 -0.283179E-06  0.660E-04    3.13      23.4  T
   5    -67.2926539 -0.644029E-08  0.478E-04    3.13      32.3  T
     SCC iter.                  ...        0 min,  0.012 sec
     gradient                   ...        0 min,  0.028 sec
 * total energy  :   -66.1635939 Eh     change       -0.3212744E-04 Eh
   gradient norm :     0.0012448 Eh/α   predicted    -0.2413598E-04 ( -24.87%)
   displ. norm   :     0.0677919 α      lambda       -0.1769167E-04
   maximum displ.:     0.0335792 α      in ANC's #3, #9, #4, ...

........................................................................
.............................. CYCLE   23 ..............................
........................................................................

 iter      E             dE          RMSdq      gap      omega  full diag
   1    -67.2950664 -0.672951E+02  0.257E-02    3.14       0.0  T
   2    -67.2950666 -0.248814E-06  0.151E-02    3.14       1.0  T
   3    -67.2950662  0.393666E-06  0.368E-03    3.14       4.2  T
   4    -67.2950667 -0.499307E-06  0.955E-04    3.14      16.1  T
   5    -67.2950667 -0.100380E-07  0.710E-04    3.14      21.7  T
     SCC iter.                  ...        0 min,  0.012 sec
     gradient                   ...        0 min,  0.037 sec
 * total energy  :   -66.1636097 Eh     change       -0.1581359E-04 Eh
   gradient norm :     0.0014576 Eh/α   predicted    -0.8865115E-05 ( -43.94%)
   displ. norm   :     0.0685180 α      lambda       -0.1111739E-04
   maximum displ.:     0.0361384 α      in ANC's #3, #4, #9, ...

........................................................................
.............................. CYCLE   24 ..............................
........................................................................

 iter      E             dE          RMSdq      gap      omega  full diag
   1    -67.2945616 -0.672946E+02  0.249E-02    3.14       0.0  T
   2    -67.2945617 -0.852332E-07  0.146E-02    3.14       1.1  T
   3    -67.2945616  0.968283E-07  0.192E-03    3.14       8.0  T
   4    -67.2945617 -0.135785E-06  0.567E-04    3.14      27.2  T
   5    -67.2945617 -0.247097E-08  0.399E-04    3.14      38.7  T
     SCC iter.                  ...        0 min,  0.012 sec
     gradient                   ...        0 min,  0.028 sec
 * total energy  :   -66.1636237 Eh     change       -0.1397727E-04 Eh
   gradient norm :     0.0012377 Eh/α   predicted    -0.5602051E-05 ( -59.92%)
   displ. norm   :     0.1249259 α      lambda       -0.1631339E-04
   maximum displ.:     0.0678516 α      in ANC's #3, #4, #8, ...

........................................................................
.............................. CYCLE   25 ..............................
........................................................................

 iter      E             dE          RMSdq      gap      omega  full diag
   1    -67.2931430 -0.672931E+02  0.463E-02    3.14       0.0  T
   2    -67.2931432 -0.139766E-06  0.272E-02    3.14       1.0  T
   3    -67.2931431  0.807253E-07  0.201E-03    3.13       7.7  T
   4    -67.2931432 -0.149230E-06  0.574E-04    3.14      26.9  T
   5    -67.2931432 -0.451152E-09  0.322E-04    3.14      48.0  T
     SCC iter.                  ...        0 min,  0.012 sec
     gradient                   ...        0 min,  0.035 sec
 * total energy  :   -66.1636403 Eh     change       -0.1664382E-04 Eh
   gradient norm :     0.0008119 Eh/α   predicted    -0.8227252E-05 ( -50.57%)
   displ. norm   :     0.0942536 α      lambda       -0.8087527E-05
   maximum displ.:     0.0558670 α      in ANC's #3, #4, #7, ...

........................................................................
.............................. CYCLE   26 ..............................
........................................................................

 iter      E             dE          RMSdq      gap      omega  full diag
   1    -67.2925972 -0.672926E+02  0.359E-02    3.14       0.0  T
   2    -67.2925972 -0.656664E-07  0.211E-02    3.14       1.0  T
   3    -67.2925972  0.532850E-07  0.144E-03    3.13      10.8  T
   4    -67.2925973 -0.892926E-07  0.468E-04    3.13      33.0  T
   5    -67.2925973 -0.103350E-08  0.315E-04    3.14      49.0  T
     SCC iter.                  ...        0 min,  0.012 sec
     gradient                   ...        0 min,  0.028 sec
 * total energy  :   -66.1636494 Eh     change       -0.9130061E-05 Eh
   gradient norm :     0.0009406 Eh/α   predicted    -0.4061069E-05 ( -55.52%)
   displ. norm   :     0.1065424 α      lambda       -0.9484113E-05
   maximum displ.:     0.0624095 α      in ANC's #3, #4, #7, ...

........................................................................
.............................. CYCLE   27 ..............................
........................................................................

 iter      E             dE          RMSdq      gap      omega  full diag
   1    -67.2924130 -0.672924E+02  0.416E-02    3.14       0.0  T
   2    -67.2924131 -0.108932E-06  0.244E-02    3.14       1.0  T
   3    -67.2924130  0.868885E-07  0.187E-03    3.13       8.2  T
   4    -67.2924131 -0.141006E-06  0.642E-04    3.14      24.0  T
   5    -67.2924131 -0.332918E-08  0.449E-04    3.14      34.3  T
     SCC iter.                  ...        0 min,  0.012 sec
     gradient                   ...        0 min,  0.037 sec
 * total energy  :   -66.1636618 Eh     change       -0.1232923E-04 Eh
   gradient norm :     0.0009439 Eh/α   predicted    -0.4769472E-05 ( -61.32%)
   displ. norm   :     0.2151477 α      lambda       -0.1953212E-04
   maximum displ.:     0.1254826 α      in ANC's #3, #4, #7, ...

........................................................................
.............................. CYCLE   28 ..............................
........................................................................

 iter      E             dE          RMSdq      gap      omega  full diag
   1    -67.2924059 -0.672924E+02  0.839E-02    3.14       0.0  T
   2    -67.2924064 -0.490313E-06  0.492E-02    3.14       1.0  T
   3    -67.2924061  0.258491E-06  0.356E-03    3.14       4.3  T
   4    -67.2924066 -0.481939E-06  0.133E-03    3.14      11.6  T
   5    -67.2924066 -0.143962E-07  0.878E-04    3.14      17.6  T
   6    -67.2924066 -0.666768E-08  0.581E-04    3.14      26.6  T
     SCC iter.                  ...        0 min,  0.015 sec
     gradient                   ...        0 min,  0.028 sec
 * total energy  :   -66.1636850 Eh     change       -0.2321476E-04 Eh
   gradient norm :     0.0012213 Eh/α   predicted    -0.9969576E-05 ( -57.06%)
   displ. norm   :     0.2401009 α      lambda       -0.1827183E-04
   maximum displ.:     0.1409591 α      in ANC's #3, #4, #5, ...

........................................................................
.............................. CYCLE   29 ..............................
........................................................................

 iter      E             dE          RMSdq      gap      omega  full diag
   1    -67.2923246 -0.672923E+02  0.929E-02    3.14       0.0  T
   2    -67.2923251 -0.506938E-06  0.544E-02    3.14       1.0  T
   3    -67.2923250  0.853010E-07  0.307E-03    3.14       5.0  T
   4    -67.2923254 -0.324792E-06  0.132E-03    3.14      11.7  T
   5    -67.2923254 -0.116840E-07  0.818E-04    3.14      18.9  T
   6    -67.2923254 -0.671261E-08  0.546E-04    3.14      28.3  T
     SCC iter.                  ...        0 min,  0.023 sec
     gradient                   ...        0 min,  0.028 sec
 * total energy  :   -66.1637066 Eh     change       -0.2166419E-04 Eh
   gradient norm :     0.0014845 Eh/α   predicted    -0.9373556E-05 ( -56.73%)
   displ. norm   :     0.2780408 α      lambda       -0.2113750E-04
   maximum displ.:     0.1632486 α      in ANC's #3, #4, #5, ...

........................................................................
.............................. CYCLE   30 ..............................
........................................................................

 iter      E             dE          RMSdq      gap      omega  full diag
   1    -67.2923479 -0.672923E+02  0.105E-01    3.14       0.0  T
   2    -67.2923486 -0.652392E-06  0.616E-02    3.14       1.0  T
   3    -67.2923486 -0.362795E-07  0.307E-03    3.14       5.0  T
   4    -67.2923489 -0.272778E-06  0.142E-03    3.14      10.8  T
   5    -67.2923489 -0.107319E-07  0.743E-04    3.14      20.8  T
   6    -67.2923489 -0.576027E-08  0.516E-04    3.14      29.9  T
     SCC iter.                  ...        0 min,  0.015 sec
     gradient                   ...        0 min,  0.037 sec
 * total energy  :   -66.1637321 Eh     change       -0.2541518E-04 Eh
   gradient norm :     0.0014906 Eh/α   predicted    -0.1093353E-04 ( -56.98%)
   displ. norm   :     0.3632664 α      lambda       -0.2939363E-04
   maximum displ.:     0.2108391 α      in ANC's #3, #4, #5, ...

........................................................................
.............................. CYCLE   31 ..............................
........................................................................

 iter      E             dE          RMSdq      gap      omega  full diag
   1    -67.2922243 -0.672922E+02  0.133E-01    3.14       0.0  T
   2    -67.2922253 -0.104961E-05  0.778E-02    3.14       1.0  T
   3    -67.2922253 -0.406103E-07  0.403E-03    3.14       3.8  T
   4    -67.2922258 -0.467444E-06  0.173E-03    3.14       8.9  T
   5    -67.2922258 -0.130482E-07  0.720E-04    3.14      21.4  T
   6    -67.2922258 -0.453774E-08  0.512E-04    3.14      30.1  T
     SCC iter.                  ...        0 min,  0.015 sec
     gradient                   ...        0 min,  0.028 sec
 * total energy  :   -66.1637662 Eh     change       -0.3410162E-04 Eh
   gradient norm :     0.0012858 Eh/α   predicted    -0.1557039E-04 ( -54.34%)
   displ. norm   :     0.3462236 α      lambda       -0.3044973E-04
   maximum displ.:     0.1955293 α      in ANC's #3, #4, #5, ...

........................................................................
.............................. CYCLE   32 ..............................
........................................................................

 iter      E             dE          RMSdq      gap      omega  full diag
   1    -67.2925948 -0.672926E+02  0.120E-01    3.14       0.0  T
   2    -67.2925957 -0.964693E-06  0.704E-02    3.14       1.0  T
   3    -67.2925956  0.183329E-06  0.447E-03    3.14       3.5  T
   4    -67.2925962 -0.653003E-06  0.163E-03    3.14       9.5  T
   5    -67.2925962 -0.526055E-08  0.730E-04    3.14      21.1  T
   6    -67.2925962 -0.758624E-08  0.473E-04    3.14      32.6  T
     SCC iter.                  ...        0 min,  0.015 sec
     gradient                   ...        0 min,  0.033 sec
 * total energy  :   -66.1638002 Eh     change       -0.3404470E-04 Eh
   gradient norm :     0.0009404 Eh/α   predicted    -0.1603711E-04 ( -52.89%)
   displ. norm   :     0.2905135 α      lambda       -0.1984753E-04
   maximum displ.:     0.1604903 α      in ANC's #3, #4, #2, ...

........................................................................
.............................. CYCLE   33 ..............................
........................................................................

 iter      E             dE          RMSdq      gap      omega  full diag
   1    -67.2924092 -0.672924E+02  0.984E-02    3.14       0.0  T
   2    -67.2924099 -0.640568E-06  0.576E-02    3.14       1.0  T
   3    -67.2924096  0.258158E-06  0.398E-03    3.14       3.9  T
   4    -67.2924102 -0.583925E-06  0.130E-03    3.14      11.9  T
   5    -67.2924102 -0.961620E-09  0.577E-04    3.14      26.8  T
   6    -67.2924102 -0.620835E-08  0.365E-04    3.14      42.3  T
     SCC iter.                  ...        0 min,  0.015 sec
     gradient                   ...        0 min,  0.028 sec
 * total energy  :   -66.1638216 Eh     change       -0.2137838E-04 Eh
   gradient norm :     0.0008952 Eh/α   predicted    -0.1029808E-04 ( -51.83%)
   displ. norm   :     0.1653210 α      lambda       -0.1177754E-04
   maximum displ.:     0.0818072 α      in ANC's #4, #3, #2, ...

........................................................................
.............................. CYCLE   34 ..............................
........................................................................

 iter      E             dE          RMSdq      gap      omega  full diag
   1    -67.2938706 -0.672939E+02  0.506E-02    3.14       0.0  T
   2    -67.2938709 -0.227572E-06  0.296E-02    3.14       1.0  T
   3    -67.2938707  0.160080E-06  0.259E-03    3.14       6.0  T
   4    -67.2938710 -0.275113E-06  0.790E-04    3.14      19.5  T
   5    -67.2938710 -0.147089E-08  0.433E-04    3.14      35.6  T
     SCC iter.                  ...        0 min,  0.012 sec
     gradient                   ...        0 min,  0.039 sec
 * total energy  :   -66.1638313 Eh     change       -0.9722108E-05 Eh
   gradient norm :     0.0011848 Eh/α   predicted    -0.5961946E-05 ( -38.68%)
   displ. norm   :     0.1796329 α      lambda       -0.7506394E-05
   maximum displ.:     0.1004390 α      in ANC's #3, #4, #2, ...

........................................................................
.............................. CYCLE   35 ..............................
........................................................................

 iter      E             dE          RMSdq      gap      omega  full diag
   1    -67.2921830 -0.672922E+02  0.607E-02    3.14       0.0  T
   2    -67.2921833 -0.300186E-06  0.355E-02    3.14       1.0  T
   3    -67.2921831  0.194301E-06  0.294E-03    3.14       5.3  T
   4    -67.2921835 -0.341234E-06  0.100E-03    3.14      15.4  T
   5    -67.2921835 -0.626137E-08  0.636E-04    3.14      24.2  T
   6    -67.2921835 -0.389463E-08  0.405E-04    3.14      38.1  T
     SCC iter.                  ...        0 min,  0.015 sec
     gradient                   ...        0 min,  0.028 sec
 * total energy  :   -66.1638362 Eh     change       -0.4907881E-05 Eh
   gradient norm :     0.0008823 Eh/α   predicted    -0.3808548E-05 ( -22.40%)
   displ. norm   :     0.0295473 α      lambda       -0.4000524E-05
   maximum displ.:     0.0184718 α      in ANC's #5, #2, #6, ...

   *** GEOMETRY OPTIMIZATION CONVERGED AFTER 35 ITERATIONS ***

------------------------------------------------------------------------
 total energy gain   :        -0.0202987 Eh      -12.7376 kcal/mol
 total RMSD          :         0.8851335 a0        0.4684 Å
 total power (kW/mol):        -1.5226929 (step)  -26.1590 (real)
------------------------------------------------------------------------

 ANCopt (total)                0 d,  0 h,  0 min,  2.037 sec
 optimizer setup                ...        0 min,  0.000 sec (  0.004%)
 model hessian                  ...        0 min,  0.035 sec (  1.702%)
 ANC generation                 ...        0 min,  0.003 sec (  0.149%)
 coordinate transformation      ...        0 min,  0.000 sec (  0.013%)
 single point calculation       ...        0 min,  1.990 sec ( 97.668%)
 optimization log               ...        0 min,  0.006 sec (  0.284%)
 hessian update                 ...        0 min,  0.000 sec (  0.023%)
 rational function              ...        0 min,  0.002 sec (  0.102%)

================
 final structure:
================
42
 xtb: 6.7.1 (edcfbbe)
Cl           0.65642983129959       -2.86978770550978        1.16837188406302
C            1.67341382296056       -1.86437365693094        0.18604519393192
C            1.30799962817518       -0.55799759902059       -0.15146951487220
C           -0.02990954949450        0.02537405464819        0.30277154025393
C           -1.11722533417657       -0.94759885662648       -0.15171851759426
C           -1.05606182296931       -1.42905456574367       -1.45785049350922
C           -2.01278920387201       -2.30619442264810       -1.93304896838431
C           -3.04654709943647       -2.71992568655298       -1.10990423801592
C           -3.10999096860952       -2.25158217016002        0.18991648263018
C           -2.15389433598222       -1.37074993434595        0.66745818019358
C           -0.26752366859356        1.42152090596279       -0.28216278222379
C           -1.20409531889203        1.68236943151385       -1.27133451951855
C           -1.39354333661275        2.97445426920114       -1.73545416650313
C           -0.65496748079313        4.02194035013897       -1.21680127347098
C            0.28014558274933        3.77152592082496       -0.22573714812368
C            0.47061616316961        2.48413455941043        0.23748107873680
N           -0.02843429111882        0.21021227691217        1.74817079109080
C            0.93875586913310       -0.09616587139831        2.66518668647144
C            0.47950278643713        0.35823679236028        3.86667730101999
N           -0.73369549284852        0.94935605481743        3.70939704912133
C           -1.00474763412682        0.85424729609345        2.43944971252950
C            2.18167188538986        0.16113606271743       -0.95944580499723
C            3.37524945125502       -0.38150108923036       -1.40206166868981
C            3.72401148594787       -1.67136548430510       -1.04644417889648
C            2.86920078178009       -2.41203533862293       -0.25110381083212
H           -0.24745527532672       -1.11761884286246       -2.10466707297314
H           -1.94655691541314       -2.66977279978337       -2.94811574923228
H           -3.79257037626982       -3.40826852043843       -1.47786574984089
H           -3.90521382087254       -2.57506020130360        0.84523732604709
H           -2.21553131346395       -1.03896882022263        1.69279437703430
H           -1.80120645509857        0.88386807683686       -1.68335100960498
H           -2.12952124739637        3.15817159214330       -2.50450378622718
H           -0.80809622017657        5.02773540034165       -1.57813553916679
H            0.86160578953796        4.58037137487414        0.19043904341733
H            1.20086504461504        2.30161968845001        1.01344759888097
H            1.85608959468919       -0.58180370644546        2.40726944316507
H            0.94549229320974        0.29984539627495        4.82977986373849
H           -1.88152470990505        1.25700733680171        1.97109189809481
H            1.92207332293893        1.16507585012301       -1.25726452315670
H            4.02759606290142        0.20750429412676       -2.02852613463691
H            4.65175698942303       -2.10401177586356       -1.38746337021298
H            3.11882548583348       -3.42196993656100        0.03384457025808

 Bond Distances (Angstroems)
 ---------------------------
Cl1-C2=1.7350        C2-Cl1=1.7350        C2-C3=1.3979         C2-C25=1.3860        C3-C2=1.3979         C3-C4=1.5286         
C3-C22=1.3904        C4-C3=1.5286         C4-C5=1.5282         C4-C11=1.5323        C4-N17=1.4572        C5-C4=1.5282         
C5-C6=1.3934         C5-C10=1.3874        C6-C5=1.3934         C6-C7=1.3822         C6-H26=1.0813        C7-C6=1.3822         
C7-C8=1.3847         C7-H27=1.0802        C8-C7=1.3847         C8-C9=1.3831         C8-H28=1.0797        C9-C8=1.3831         
C9-C10=1.3849        C9-H29=1.0800        C10-C5=1.3874        C10-C9=1.3849        C10-H30=1.0794       C11-C4=1.5323        
C11-C12=1.3870       C11-C16=1.3943       C12-C11=1.3870       C12-C13=1.3859       C12-H31=1.0788       C13-C12=1.3859       
C13-C14=1.3827       C13-H32=1.0802       C14-C13=1.3827       C14-C15=1.3854       C14-H33=1.0796       C15-C14=1.3854       
C15-C16=1.3814       C15-H34=1.0796       C16-C11=1.3943       C16-C15=1.3814       C16-H35=1.0811       N17-C4=1.4572        
N17-C18=1.3676       N17-C21=1.3586       C18-N17=1.3676       C18-C19=1.3642       C18-H36=1.0695       C19-C18=1.3642       
C19-N20=1.3587       C19-H37=1.0715       N20-C19=1.3587       N20-C21=1.3020       C21-N17=1.3586       C21-N20=1.3020       
C21-H38=1.0725       C22-C3=1.3904        C22-C23=1.3838       C22-H39=1.0789       C23-C22=1.3838       C23-C24=1.3827       
C23-H40=1.0793       C24-C23=1.3827       C24-C25=1.3827       C24-H41=1.0790       C25-C2=1.3860        C25-C24=1.3827       
C25-H42=1.0786       H26-C6=1.0813        H27-C7=1.0802        H28-C8=1.0797        H29-C9=1.0800        H30-C10=1.0794       
H31-C12=1.0788       H32-C13=1.0802       H33-C14=1.0796       H34-C15=1.0796       H35-C16=1.0811       H36-C18=1.0695       
H37-C19=1.0715       H38-C21=1.0725       H39-C22=1.0789       H40-C23=1.0793       H41-C24=1.0790       H42-C25=1.0786       
 C  H  Rav=1.0782 sigma=0.0034  Rmin=1.0695  Rmax=1.0813    17
 C  C  Rav=1.4050 sigma=0.0500  Rmin=1.3642  Rmax=1.5323    22
 N  C  Rav=1.3688 sigma=0.0500  Rmin=1.3020  Rmax=1.4572     5
 Cl C  Rav=1.7350 sigma=0.0000  Rmin=1.7350  Rmax=1.7350     1

 selected bond angles (degree)
 --------------------
C3-C2-Cl1=121.67               C25-C2-Cl1=117.09              C25-C2-C3=121.24               C4-C3-C2=120.91                
C22-C3-C2=117.35               C22-C3-C4=121.69               C5-C4-C3=106.94                C11-C4-C3=111.72               
C11-C4-C5=110.87               N17-C4-C3=110.02               N17-C4-C5=112.12               N17-C4-C11=105.26              
C6-C5-C4=117.87                C10-C5-C4=123.38               C10-C5-C6=118.74               C7-C6-C5=120.74                
H26-C6-C5=119.61               H26-C6-C7=119.65               C8-C7-C6=120.13                H27-C7-C6=119.62               
H27-C7-C8=120.25               C9-C8-C7=119.46                H28-C8-C7=120.25               H28-C8-C9=120.30               
C10-C9-C8=120.51               H29-C9-C8=120.17               H29-C9-C10=119.31              C9-C10-C5=120.41               
H30-C10-C5=120.65              H30-C10-C9=118.92              

 selected dihedral angles (degree)
 ---------------------------------
C4-C3-C2-Cl1=358.25           C4-C3-C2-C25=178.31           C22-C3-C2-Cl1=180.91          C22-C3-C2-C25=  0.98          
C5-C4-C3-C2=306.39            C5-C4-C3-C22=123.60           C11-C4-C3-C2=184.91           C11-C4-C3-C22=  2.12          
N17-C4-C3-C2= 68.38           N17-C4-C3-C22=245.59          C6-C5-C4-C3=313.78            C6-C5-C4-C11= 75.79           
C6-C5-C4-N17=193.11           C10-C5-C4-C3=133.79           C10-C5-C4-C11=255.80          C10-C5-C4-N17= 13.12          
C7-C6-C5-C4=180.34            C7-C6-C5-C10=  0.34           H26-C6-C5-C4=  0.73           H26-C6-C5-C10=180.72          
C8-C7-C6-C5=359.87            C8-C7-C6-H26=179.48           H27-C7-C6-C5=180.13           H27-C7-C6-H26=359.75          
C9-C8-C7-C6=359.80            C9-C8-C7-H27=179.54           H28-C8-C7-C6=180.26           H28-C8-C7-H27=  0.00          
C10-C9-C8-C7=  0.32           C10-C9-C8-H28=179.86          H29-C9-C8-C7=180.66           H29-C9-C8-H28=  0.21          
C9-C10-C5-C4=179.77           C9-C10-C5-C6=359.78           H30-C10-C5-C4=358.27          H30-C10-C5-C6=178.28          
C5-C10-C9-C8=359.89           C5-C10-C9-H29=179.55          H30-C10-C9-C8=181.37          H30-C10-C9-H29=  1.03         
           -------------------------------------------------
          |                Final Singlepoint                |
           -------------------------------------------------

          ...................................................
          :                      SETUP                      :
          :.................................................:
          :  # basis functions                 123          :
          :  # atomic orbitals                 122          :
          :  # shells                           68          :
          :  # electrons                       122          :
          :  max. iterations                   250          :
          :  Hamiltonian                  GFN2-xTB          :
          :  restarted?                      false          :
          :  GBSA solvation                  false          :
          :  PC potential                    false          :
          :  electronic temp.          300.0000000     K    :
          :  accuracy                    1.0000000          :
          :  -> integral cutoff          0.2500000E+02      :
          :  -> integral neglect         0.1000000E-07      :
          :  -> SCF convergence          0.1000000E-05 Eh   :
          :  -> wf. convergence          0.1000000E-03 e    :
          :  Broyden damping             0.4000000          :
          :  net charge                          0          :
          :  unpaired electrons                  0          :
          ...................................................

 iter      E             dE          RMSdq      gap      omega  full diag
   1    -67.2921835 -0.672922E+02  0.307E-04    3.14       0.0  T
   2    -67.2921835 -0.571958E-09  0.263E-04    3.14      58.8  T
   3    -67.2921835 -0.243773E-09  0.218E-04    3.14      70.9  T

   *** convergence criteria satisfied after 3 iterations ***

         #    Occupation            Energy/Eh            Energy/eV
      -------------------------------------------------------------
         1        2.0000           -1.0618486             -28.8944
       ...           ...                  ...                  ...
        55        2.0000           -0.4155463             -11.3076
        56        2.0000           -0.4113608             -11.1937
        57        2.0000           -0.4060528             -11.0493
        58        2.0000           -0.4052157             -11.0265
        59        2.0000           -0.4020472             -10.9403
        60        2.0000           -0.3757731             -10.2253
        61        2.0000           -0.3670861              -9.9889 (HOMO)
        62                         -0.2517067              -6.8493 (LUMO)
        63                         -0.2479686              -6.7476
        64                         -0.2379529              -6.4750
        65                         -0.2349700              -6.3939
        66                         -0.2317040              -6.3050
       ...                                ...                  ...
       122                          0.6564563              17.8631
      -------------------------------------------------------------
                  HL-Gap            0.1153794 Eh            3.1396 eV
             Fermi-level           -0.3093964 Eh           -8.4191 eV

 SCC (total)                   0 d,  0 h,  0 min,  0.056 sec
 SCC setup                      ...        0 min,  0.000 sec (  0.573%)
 Dispersion                     ...        0 min,  0.000 sec (  0.551%)
 classical contributions        ...        0 min,  0.000 sec (  0.263%)
 integral evaluation            ...        0 min,  0.020 sec ( 34.979%)
 iterations                     ...        0 min,  0.008 sec ( 13.334%)
 molecular gradient             ...        0 min,  0.028 sec ( 49.979%)
 printout                       ...        0 min,  0.000 sec (  0.308%)

         :::::::::::::::::::::::::::::::::::::::::::::::::::::
         ::                     SUMMARY                     ::
         :::::::::::::::::::::::::::::::::::::::::::::::::::::
         :: total energy             -66.163836211921 Eh    ::
         :: gradient norm              0.000883354161 Eh/a0 ::
         :: HOMO-LUMO gap              3.139633387836 eV    ::
         ::.................................................::
         :: SCC energy               -67.290529801249 Eh    ::
         :: -> isotropic ES            0.018517106379 Eh    ::
         :: -> anisotropic ES          0.002913123636 Eh    ::
         :: -> anisotropic XC          0.042636438487 Eh    ::
         :: -> dispersion             -0.061597161698 Eh    ::
         :: repulsion energy           1.126693589327 Eh    ::
         :: add. restraining           0.000000000000 Eh    ::
         :: total charge              -0.000000000000 e     ::
         :::::::::::::::::::::::::::::::::::::::::::::::::::::

           -------------------------------------------------
          |                Property Printout                |
           -------------------------------------------------

    * Orbital Energies and Occupations

         #    Occupation            Energy/Eh            Energy/eV
      -------------------------------------------------------------
         1        2.0000           -1.0618486             -28.8944
       ...           ...                  ...                  ...
        49        2.0000           -0.4371877             -11.8965
        50        2.0000           -0.4328664             -11.7789
        51        2.0000           -0.4299379             -11.6992
        52        2.0000           -0.4279033             -11.6438
        53        2.0000           -0.4262820             -11.5997
        54        2.0000           -0.4162534             -11.3268
        55        2.0000           -0.4155463             -11.3076
        56        2.0000           -0.4113608             -11.1937
        57        2.0000           -0.4060528             -11.0493
        58        2.0000           -0.4052157             -11.0265
        59        2.0000           -0.4020472             -10.9403
        60        2.0000           -0.3757731             -10.2253
        61        2.0000           -0.3670861              -9.9889 (HOMO)
        62                         -0.2517067              -6.8493 (LUMO)
        63                         -0.2479686              -6.7476
        64                         -0.2379529              -6.4750
        65                         -0.2349700              -6.3939
        66                         -0.2317040              -6.3050
        67                         -0.2297496              -6.2518
        68                         -0.1939098              -5.2766
        69                         -0.1541476              -4.1946
        70                         -0.1437978              -3.9129
        71                         -0.1238560              -3.3703
        72                         -0.1080822              -2.9411
       ...                                ...                  ...
       122                          0.6564563              17.8631
      -------------------------------------------------------------
                  HL-Gap            0.1153794 Eh            3.1396 eV
             Fermi-level           -0.3093964 Eh           -8.4191 eV

     #   Z          covCN         q      C6AA      α(0)
     1  17 Cl       0.967    -0.170   104.486    15.638
     2   6 C        2.890     0.095    25.890     8.342
     3   6 C        2.996     0.002    27.964     8.674
     4   6 C        3.850     0.068    19.419     6.268
     5   6 C        2.979     0.009    27.818     8.652
     6   6 C        2.925    -0.033    28.825     8.805
     7   6 C        2.919    -0.028    28.711     8.787
     8   6 C        2.919    -0.029    28.724     8.789
     9   6 C        2.921    -0.026    28.662     8.779
    10   6 C        2.922    -0.031    28.769     8.796
    11   6 C        2.978     0.003    27.957     8.673
    12   6 C        2.922    -0.036    28.890     8.814
    13   6 C        2.920    -0.028    28.705     8.786
    14   6 C        2.919    -0.029    28.716     8.788
    15   6 C        2.919    -0.028    28.703     8.786
    16   6 C        2.925    -0.031    28.767     8.796
    17   7 N        2.866    -0.021    21.654     6.911
    18   6 C        3.046    -0.021    28.475     8.752
    19   6 C        3.167     0.015    27.319     8.541
    20   7 N        1.912    -0.272    27.899     7.831
    21   6 C        3.185     0.085    25.687     8.271
    22   6 C        2.926    -0.035    28.863     8.810
    23   6 C        2.918    -0.032    28.809     8.802
    24   6 C        2.920    -0.027    28.677     8.782
    25   6 C        2.967    -0.039    28.971     8.829
    26   1 H        0.925     0.027     2.635     2.538
    27   1 H        0.926     0.033     2.550     2.497
    28   1 H        0.926     0.034     2.529     2.487
    29   1 H        0.926     0.036     2.504     2.475
    30   1 H        0.926     0.041     2.431     2.438
    31   1 H        0.926     0.037     2.488     2.467
    32   1 H        0.926     0.036     2.507     2.476
    33   1 H        0.926     0.036     2.498     2.472
    34   1 H        0.926     0.037     2.487     2.466
    35   1 H        0.926     0.035     2.514     2.480
    36   1 H        0.927     0.026     2.643     2.542
    37   1 H        0.926     0.028     2.611     2.527
    38   1 H        0.926     0.027     2.636     2.539
    39   1 H        0.926     0.050     2.314     2.379
    40   1 H        0.926     0.047     2.363     2.404
    41   1 H        0.926     0.050     2.323     2.383
    42   1 H        0.926     0.060     2.198     2.319

 Mol. C6AA /au·bohr⁶  :      26542.152759
 Mol. C8AA /au·bohr⁸  :     688217.417429
 Mol. α(0) /au        :        261.587294


Wiberg/Mayer (AO) data.
largest (>0.10) Wiberg bond orders for each atom

 ---------------------------------------------------------------------------
     #   Z sym  total        # sym  WBO       # sym  WBO       # sym  WBO
 ---------------------------------------------------------------------------
     1  17 Cl   1.124 --     2 C    0.976
     2   6 C    3.917 --    25 C    1.411     3 C    1.369     1 Cl   0.976
                            23 C    0.101
     3   6 C    3.984 --    22 C    1.417     2 C    1.369     4 C    0.962
                            24 C    0.107
     4   6 C    3.968 --     3 C    0.962     5 C    0.960    17 N    0.956
                            11 C    0.956
     5   6 C    3.985 --    10 C    1.424     6 C    1.399     4 C    0.960
                             8 C    0.110
     6   6 C    3.991 --     7 C    1.450     5 C    1.399    26 H    0.968
                             9 C    0.111
     7   6 C    3.991 --     6 C    1.450     8 C    1.432    27 H    0.971
                            10 C    0.109
     8   6 C    3.991 --     9 C    1.444     7 C    1.432    28 H    0.971
                             5 C    0.110
     9   6 C    3.991 --     8 C    1.444    10 C    1.436    29 H    0.971
                             6 C    0.111
    10   6 C    3.990 --     9 C    1.436     5 C    1.424    30 H    0.961
                             7 C    0.109
    11   6 C    3.985 --    12 C    1.428    16 C    1.399     4 C    0.956
                            14 C    0.111
    12   6 C    3.990 --    13 C    1.432    11 C    1.428    31 H    0.963
                            15 C    0.109
    13   6 C    3.991 --    14 C    1.448    12 C    1.432    32 H    0.971
                            16 C    0.113
    14   6 C    3.991 --    13 C    1.448    15 C    1.429    33 H    0.971
                            11 C    0.111
    15   6 C    3.991 --    16 C    1.454    14 C    1.429    34 H    0.970
                            12 C    0.109
    16   6 C    3.991 --    15 C    1.454    11 C    1.399    35 H    0.968
                            13 C    0.113
    17   7 N    3.632 --    21 C    1.237    18 C    1.202     4 C    0.956
                            20 N    0.102
    18   6 C    3.943 --    19 C    1.581    17 N    1.202    36 H    0.968
                            21 C    0.113
    19   6 C    3.973 --    18 C    1.581    20 N    1.294    37 H    0.971
    20   7 N    3.025 --    21 C    1.551    19 C    1.294    17 N    0.102
    21   6 C    3.958 --    20 N    1.551    17 N    1.237    38 H    0.964
                            18 C    0.113
    22   6 C    3.988 --    23 C    1.437     3 C    1.417    39 H    0.960
                            25 C    0.107
    23   6 C    3.991 --    22 C    1.437    24 C    1.437    40 H    0.970
                             2 C    0.101
    24   6 C    3.988 --    25 C    1.437    23 C    1.437    41 H    0.969
                             3 C    0.107
    25   6 C    3.987 --    24 C    1.437     2 C    1.411    42 H    0.967
                            22 C    0.107
    26   1 H    0.999 --     6 C    0.968
    27   1 H    0.998 --     7 C    0.971
    28   1 H    0.998 --     8 C    0.971
    29   1 H    0.998 --     9 C    0.971
    30   1 H    0.998 --    10 C    0.961
    31   1 H    0.999 --    12 C    0.963
    32   1 H    0.998 --    13 C    0.971
    33   1 H    0.998 --    14 C    0.971
    34   1 H    0.998 --    15 C    0.970
    35   1 H    0.999 --    16 C    0.968
    36   1 H    0.999 --    18 C    0.968
    37   1 H    0.999 --    19 C    0.971
    38   1 H    0.999 --    21 C    0.964
    39   1 H    0.997 --    22 C    0.960
    40   1 H    0.997 --    23 C    0.970
    41   1 H    0.997 --    24 C    0.969
    42   1 H    0.996 --    25 C    0.967
 ---------------------------------------------------------------------------

Topologies differ in total number of bonds
Writing topology from bond orders to xtbtopo.mol

molecular dipole:
                 x           y           z       tot (Debye)
 q only:        0.661       0.224      -1.671
   full:        0.677      -0.114      -1.894       5.120
molecular quadrupole (traceless):
                xx          xy          yy          xz          yz          zz
 q only:       10.659      -0.356       0.860       1.436      -1.283     -11.518
  q+dip:       11.324       2.149       4.839       4.612      -5.014     -16.163
   full:       11.304       1.765       4.608       4.508      -5.154     -15.913

           -------------------------------------------------
          |                Geometry Summary                 |
           -------------------------------------------------

      molecular mass/u    :      344.8375265
   center of mass at/Å    :        0.0447946      -0.2510381       0.2382112
  moments of inertia/u·Å² :        0.1956174E+04   0.2334335E+04   0.2514219E+04
rotational constants/cm⁻¹ :        0.8617657E-02   0.7221601E-02   0.6704919E-02

 * 42 selected distances

     #   Z          #   Z                                           value/Å
     1  17 Cl       2   6 C                                       1.7349583 (max)
     2   6 C        3   6 C                                       1.3978778
     5   6 C        6   6 C                                       1.3933850
     6   6 C        7   6 C                                       1.3822140
     7   6 C        8   6 C                                       1.3847009
     8   6 C        9   6 C                                       1.3830781
     5   6 C       10   6 C                                       1.3873681
     9   6 C       10   6 C                                       1.3849305
    11   6 C       12   6 C                                       1.3869641
    12   6 C       13   6 C                                       1.3859225
    13   6 C       14   6 C                                       1.3826506
    14   6 C       15   6 C                                       1.3854069
    11   6 C       16   6 C                                       1.3942841
    15   6 C       16   6 C                                       1.3813859
     4   6 C       17   7 N                                       1.4571708
    17   7 N       18   6 C                                       1.3675682
    18   6 C       19   6 C                                       1.3641757
    19   6 C       20   7 N                                       1.3586793
    17   7 N       21   6 C                                       1.3586154
    20   7 N       21   6 C                                       1.3020298
     3   6 C       22   6 C                                       1.3904253
    22   6 C       23   6 C                                       1.3838322
    23   6 C       24   6 C                                       1.3826964
     2   6 C       25   6 C                                       1.3859796
    24   6 C       25   6 C                                       1.3827002
     6   6 C       26   1 H                                       1.0812995
     7   6 C       27   1 H                                       1.0802485
     8   6 C       28   1 H                                       1.0797048
     9   6 C       29   1 H                                       1.0800292
    10   6 C       30   1 H                                       1.0794408
    12   6 C       31   1 H                                       1.0788438
    13   6 C       32   1 H                                       1.0802097
    14   6 C       33   1 H                                       1.0796457
    15   6 C       34   1 H                                       1.0795970
    16   6 C       35   1 H                                       1.0810640
    18   6 C       36   1 H                                       1.0695171 (min)
    19   6 C       37   1 H                                       1.0715048
    21   6 C       38   1 H                                       1.0725264
    22   6 C       39   1 H                                       1.0788803
    23   6 C       40   1 H                                       1.0793245
    24   6 C       41   1 H                                       1.0789758
    25   6 C       42   1 H                                       1.0786455

[...]
     2023, XX, XXXX-XXXX. DOI: 10.1021/acs.jpca.3c04382
   
   for DFT-D4:
   * E. Caldeweyher, C. Bannwarth and S. Grimme, J. Chem. Phys., 2017,
     147, 034112. DOI: 10.1063/1.4993215
   * E. Caldeweyher, S. Ehlert, A. Hansen, H. Neugebauer, S. Spicher,
     C. Bannwarth and S. Grimme, J. Chem. Phys., 2019, 150, 154122.
     DOI: 10.1063/1.5090222
   * E. Caldeweyher, J.-M. Mewes, S. Ehlert and S. Grimme, Phys. Chem. Chem. Phys.
     2020, 22, 8499-8512. DOI: 10.1039/D0CP00502A
   
   for sTDA-xTB:
   * S. Grimme and C. Bannwarth, J. Chem. Phys., 2016, 145, 054103.
     DOI: 10.1063/1.4959605
   
   in the mass-spec context:
   * V. Asgeirsson, C. Bauer and S. Grimme, Chem. Sci., 2017, 8, 4879.
     DOI: 10.1039/c7sc00601b
   * J. Koopman and S. Grimme, ACS Omega 2019, 4, 12, 15120-15133.
     DOI: 10.1021/acsomega.9b02011
   
   for metadynamics refer to:
   * S. Grimme, J. Chem. Theory Comput., 2019, 155, 2847-2862
     DOI: 10.1021/acs.jctc.9b00143
   
   for SPH calculations refer to:
   * S. Spicher and S. Grimme, J. Chem. Theory Comput., 2021, 17, 1701-1714
     DOI: 10.1021/acs.jctc.0c01306
   
   for ONIOM refer to:
   * C. Plett, A. Katbashev, S. Ehlert, S. Grimme, M. Bursch,
     Phys. Chem. Chem. Phys., 2023, 25, 17860-17868. DOI: 10.1039/D3CP02178E
   
   for DIPRO refer to:
   * J. Kohn, N. Gildemeister, S. Grimme, D. Fazzi, A. Hansen,
     J. Chem. Phys., 2023, just accepted.
   
   for PTB refer to:
   * S. Grimme, M. Mueller, A. Hansen, J. Chem. Phys., 2023, 158, 124111.
     DOI: 10.1063/5.0137838
   
   with help from (in alphabetical order)
   P. Atkinson, C. Bannwarth, F. Bohle, G. Brandenburg, E. Caldeweyher
   M. Checinski, S. Dohm, S. Ehlert, S. Ehrlich, I. Gerasimov, C. Hölzer
   A. Katbashev, J. Kohn, J. Koopman, C. Lavigne, S. Lehtola, F. März, M. Müller,
   F. Musil, H. Neugebauer, J. Pisarek, C. Plett, P. Pracht, F. Pultar,
   J. Seibert, P. Shushkov, S. Spicher, M. Stahn, M. Steiner, T. Strunk,
   J. Stückrath, T. Rose, and J. Unsleber
   
 * started run on 2025/05/15 at 16:28:20.190     
   ID    Z sym.   atoms
    1   17 Cl     1
    2    6 C      2-16, 18, 19, 21-25
    3    7 N      17, 20
    4    1 H      26-42

           -------------------------------------------------
          |                Calculation Setup                |
           -------------------------------------------------

          program call               : xtb /rds/general/user/hgt20/home/callum/QDESCP/Clotrimazole_rdkit_conf_2/Clotrimazole_rdkit_conf_2.xyz --acc 1 --gfn 2 --chrg 0 --uhf 2 --etemp 300 --input /rds/general/user/hgt20/home/callum/QDESCP/Clotrimazole_rdkit_conf_2/Clotrimazole_rdkit_conf_2_xtb.inp -P 1
          hostname                   : login-c
          coordinate file            : /rds/general/user/hgt20/home/callum/QDESCP/Clotrimazole_rdkit_conf_2/Clotrimazole_rdkit_conf_2.xyz
          omp threads                :                     1


           -------------------------------------------------
          |                 G F N 2 - x T B                 |
           -------------------------------------------------

        Reference                      10.1021/acs.jctc.8b01176
      * Hamiltonian:
        H0-scaling (s, p, d)           1.850000    2.230000    2.230000
        zeta-weighting                 0.500000
      * Dispersion:
        s8                             2.700000
        a1                             0.520000
        a2                             5.000000
        s9                             5.000000
      * Repulsion:
        kExp                           1.500000    1.000000
        rExp                           1.000000
      * Coulomb:
        alpha                          2.000000
        third order                    shell-resolved
        anisotropic                    true
        a3                             3.000000
        a5                             4.000000
        cn-shift                       1.200000
        cn-exp                         4.000000
        max-rad                        5.000000


          ...................................................
          :                      SETUP                      :
          :.................................................:
          :  # basis functions                 123          :
          :  # atomic orbitals                 122          :
          :  # shells                           68          :
          :  # electrons                       122          :
          :  max. iterations                   250          :
          :  Hamiltonian                  GFN2-xTB          :
          :  restarted?                      false          :
          :  GBSA solvation                  false          :
          :  PC potential                    false          :
          :  electronic temp.          300.0000000     K    :
          :  accuracy                    1.0000000          :
          :  -> integral cutoff          0.2500000E+02      :
          :  -> integral neglect         0.1000000E-07      :
          :  -> SCF convergence          0.1000000E-05 Eh   :
          :  -> wf. convergence          0.1000000E-03 e    :
          :  Broyden damping             0.4000000          :
          :  net charge                          0          :
          :  unpaired electrons                  2          :
          ...................................................

 iter      E             dE          RMSdq      gap      omega  full diag
   1    -66.9909777 -0.669910E+02  0.379E+00    0.08       0.0  T
   2    -66.7780822  0.212895E+00  0.331E+00    0.62       1.0  T
   3    -66.8797741 -0.101692E+00  0.264E+00    0.19       1.0  T
   4    -66.9745712 -0.947971E-01  0.177E+00    0.06       1.0  T
   5    -66.9175333  0.570380E-01  0.164E+00    0.13       1.0  T
   6    -67.0266782 -0.109145E+00  0.123E+00    0.13       1.0  T
   7    -67.0760280 -0.493498E-01  0.915E-01    0.17       1.0  T
   8    -67.0760295 -0.151326E-05  0.893E-01    0.11       1.0  T
   9    -67.1141841 -0.381546E-01  0.652E-01    0.11       1.0  T
  10    -67.1283649 -0.141808E-01  0.420E-01    0.11       1.0  T
  11    -67.1356364 -0.727142E-02  0.279E-01    0.13       1.0  T
  12    -67.1358806 -0.244253E-03  0.242E-01    0.10       1.0  T
  13    -67.1363928 -0.512226E-03  0.205E-01    0.10       1.0  T
  14    -67.1390829 -0.269011E-02  0.963E-02    0.10       1.0  T
  15    -67.1396853 -0.602382E-03  0.460E-02    0.10       1.0  T
  16    -67.1396983 -0.129922E-04  0.361E-02    0.10       1.0  T
  17    -67.1395527  0.145648E-03  0.510E-02    0.10       1.0  T
  18    -67.1397882 -0.235579E-03  0.158E-02    0.10       1.0  T
  19    -67.1396853  0.102929E-03  0.359E-02    0.10       1.0  T
  20    -67.1398004 -0.115104E-03  0.573E-03    0.10       2.7  T
  21    -67.1397976  0.279781E-05  0.670E-03    0.10       2.3  T
  22    -67.1397977 -0.679998E-07  0.651E-03    0.10       2.4  T
  23    -67.1398011 -0.336925E-05  0.229E-03    0.10       6.7  T
  24    -67.1398013 -0.259522E-06  0.150E-03    0.10      10.3  T
  25    -67.1398015 -0.184516E-06  0.364E-04    0.10      42.4  T
  26    -67.1398015  0.187709E-07  0.560E-04    0.10      27.6  T

   *** convergence criteria satisfied after 26 iterations ***

         #    Occupation            Energy/Eh            Energy/eV
      -------------------------------------------------------------
         1        2.0000           -1.0675944             -29.0507
       ...           ...                  ...                  ...
        56        2.0000           -0.4084754             -11.1152
        57        2.0000           -0.4071517             -11.0792
        58        1.9982           -0.4032646             -10.9734
        59        1.8870           -0.3992344             -10.8637
        60        1.8224           -0.3987328             -10.8501
        61        1.2924           -0.3964368             -10.7876
        62        0.8681           -0.2363583              -6.4316 (HOMO)
        63        0.1137           -0.2326174              -6.3298 (LUMO)
        64        0.0136           -0.2304952              -6.2721
        65        0.0044           -0.2294169              -6.2428
        66        0.0002           -0.2264397              -6.1617
        67        0.0001           -0.2260431              -6.1509
       ...           ...                  ...                  ...
       122                          0.6593414              17.9416
      -------------------------------------------------------------
                  HL-Gap            0.0037409 Eh            0.1018 eV
             Fermi-level           -0.3159225 Eh           -8.5967 eV

 transition dipole moment (au) for excitation:          61          62
     X       Y       Z   
  -0.0157   1.0085  -0.3858  total (au/Debye):    1.080   2.745
 dE (eV)             :    4.356
 oscillator strength :  0.17600E+00

 SCC (total)                   0 d,  0 h,  0 min,  0.130 sec
 SCC setup                      ...        0 min,  0.000 sec (  0.293%)
 Dispersion                     ...        0 min,  0.001 sec (  0.403%)
 classical contributions        ...        0 min,  0.000 sec (  0.114%)
 integral evaluation            ...        0 min,  0.010 sec (  7.846%)
 iterations                     ...        0 min,  0.079 sec ( 61.375%)
 molecular gradient             ...        0 min,  0.029 sec ( 22.217%)
 printout                       ...        0 min,  0.010 sec (  7.746%)

         :::::::::::::::::::::::::::::::::::::::::::::::::::::
         ::                     SUMMARY                     ::
         :::::::::::::::::::::::::::::::::::::::::::::::::::::
         :: total energy             -66.011454198484 Eh    ::
         :: gradient norm              0.099401312552 Eh/a0 ::
         :: HOMO-LUMO gap              0.101795878642 eV    ::
         ::.................................................::
         :: SCC energy               -67.138147787811 Eh    ::
         :: -> isotropic ES            0.012879276541 Eh    ::
         :: -> anisotropic ES          0.005025512169 Eh    ::
         :: -> anisotropic XC          0.039536780513 Eh    ::
         :: -> dispersion             -0.061620535720 Eh    ::
         :: repulsion energy           1.126693589327 Eh    ::
         :: add. restraining           0.000000000000 Eh    ::
         :: total charge              -0.000000000357 e     ::
         :::::::::::::::::::::::::::::::::::::::::::::::::::::

           -------------------------------------------------
          |                Property Printout                |
           -------------------------------------------------

    * Orbital Energies and Occupations

         #    Occupation            Energy/Eh            Energy/eV
      -------------------------------------------------------------
         1        2.0000           -1.0675944             -29.0507
       ...           ...                  ...                  ...
        50        2.0000           -0.4302376             -11.7074
        51        2.0000           -0.4284257             -11.6581
        52        2.0000           -0.4264140             -11.6033
        53        2.0000           -0.4200847             -11.4311
        54        2.0000           -0.4125150             -11.2251
        55        2.0000           -0.4095287             -11.1438
        56        2.0000           -0.4084754             -11.1152
        57        2.0000           -0.4071517             -11.0792
        58        1.9982           -0.4032646             -10.9734
        59        1.8870           -0.3992344             -10.8637
        60        1.8224           -0.3987328             -10.8501
        61        1.2924           -0.3964368             -10.7876
        62        0.8681           -0.2363583              -6.4316 (HOMO)
        63        0.1137           -0.2326174              -6.3298 (LUMO)
        64        0.0136           -0.2304952              -6.2721
        65        0.0044           -0.2294169              -6.2428
        66        0.0002           -0.2264397              -6.1617
        67        0.0001           -0.2260431              -6.1509
        68                         -0.2186086              -5.9486
        69                         -0.1843966              -5.0177
        70                         -0.1440863              -3.9208
        71                         -0.1076859              -2.9303
        72                         -0.1007127              -2.7405
        73                         -0.1003825              -2.7315
       ...                                ...                  ...
       122                          0.6593414              17.9416
      -------------------------------------------------------------
                  HL-Gap            0.0037409 Eh            0.1018 eV
             Fermi-level           -0.3159225 Eh           -8.5967 eV

     #   Z          covCN         q      C6AA      α(0)
     1  17 Cl       0.967    -0.126   103.079    15.533
     2   6 C        2.890     0.074    26.349     8.416
     3   6 C        2.996    -0.022    28.550     8.765
     4   6 C        3.850     0.065    19.464     6.275
     5   6 C        2.979     0.007    27.863     8.659
     6   6 C        2.925    -0.032    28.796     8.800
     7   6 C        2.919    -0.030    28.758     8.794
     8   6 C        2.919    -0.032    28.805     8.801
     9   6 C        2.921    -0.028    28.695     8.784
    10   6 C        2.922    -0.037    28.914     8.818
    11   6 C        2.978    -0.004    28.127     8.699
    12   6 C        2.922    -0.037    28.919     8.819
    13   6 C        2.920    -0.032    28.808     8.802
    14   6 C        2.919    -0.034    28.853     8.809
    15   6 C        2.919    -0.030    28.737     8.791
    16   6 C        2.925    -0.038    28.938     8.822
    17   7 N        2.866    -0.002    21.297     6.854
    18   6 C        3.046    -0.008    28.170     8.705
    19   6 C        3.167     0.025    27.094     8.506
    20   7 N        1.912    -0.223    26.704     7.662
    21   6 C        3.185     0.093    25.504     8.241
    22   6 C        2.926    -0.042    29.044     8.838
    23   6 C        2.918    -0.036    28.906     8.816
    24   6 C        2.920    -0.046    29.142     8.853
    25   6 C        2.967    -0.045    29.121     8.852
    26   1 H        0.925     0.032     2.558     2.501
    27   1 H        0.926     0.032     2.561     2.502
    28   1 H        0.926     0.031     2.565     2.505
    29   1 H        0.926     0.033     2.546     2.495
    30   1 H        0.926     0.030     2.584     2.514
    31   1 H        0.926     0.034     2.529     2.487
    32   1 H        0.926     0.031     2.565     2.505
    33   1 H        0.926     0.031     2.572     2.508
    34   1 H        0.926     0.032     2.556     2.500
    35   1 H        0.926     0.025     2.656     2.548
    36   1 H        0.927     0.054     2.275     2.359
    37   1 H        0.926     0.048     2.342     2.393
    38   1 H        0.926     0.051     2.313     2.378
    39   1 H        0.926     0.041     2.438     2.442
    40   1 H        0.926     0.036     2.509     2.477
    41   1 H        0.926     0.035     2.516     2.481
    42   1 H        0.926     0.045     2.384     2.414

 Mol. C6AA /au·bohr⁶  :      26563.711779
 Mol. C8AA /au·bohr⁸  :     688612.209469
 Mol. α(0) /au        :        261.719909


Wiberg/Mayer (AO) data.
largest (>0.10) Wiberg bond orders for each atom

 ---------------------------------------------------------------------------
     #   Z sym  total        # sym  WBO       # sym  WBO       # sym  WBO
 ---------------------------------------------------------------------------
     1  17 Cl   1.165 --     2 C    0.998
     2   6 C    3.685 --    25 C    1.347     3 C    1.144     1 Cl   0.998
     3   6 C    3.801 --    22 C    1.386     2 C    1.144     4 C    0.961
     4   6 C    3.944 --     3 C    0.961    11 C    0.955     5 C    0.952
                            17 N    0.937
     5   6 C    3.906 --    10 C    1.375     6 C    1.349     4 C    0.952
     6   6 C    3.954 --     7 C    1.459     5 C    1.349    26 H    0.967
     7   6 C    3.957 --     6 C    1.459     8 C    1.397    27 H    0.971
     8   6 C    3.899 --     9 C    1.402     7 C    1.397    28 H    0.971
     9   6 C    3.954 --    10 C    1.447     8 C    1.402    29 H    0.970
    10   6 C    3.946 --     9 C    1.447     5 C    1.375    30 H    0.961
    11   6 C    3.913 --    12 C    1.394    16 C    1.315     4 C    0.955
    12   6 C    3.977 --    13 C    1.456    11 C    1.394    31 H    0.962
                            15 C    0.105
    13   6 C    3.926 --    12 C    1.456    14 C    1.371    32 H    0.970
    14   6 C    3.876 --    15 C    1.414    13 C    1.371    33 H    0.971
    15   6 C    3.984 --    16 C    1.465    14 C    1.414    34 H    0.971
                            12 C    0.105
    16   6 C    3.932 --    15 C    1.465    11 C    1.315    35 H    0.969
    17   7 N    3.635 --    21 C    1.233    18 C    1.231     4 C    0.937
    18   6 C    3.911 --    19 C    1.518    17 N    1.231    36 H    0.964
    19   6 C    3.908 --    18 C    1.518    20 N    1.295    37 H    0.969
    20   7 N    3.034 --    21 C    1.522    19 C    1.295
    21   6 C    3.910 --    20 N    1.522    17 N    1.233    38 H    0.962
    22   6 C    3.930 --    23 C    1.427     3 C    1.386    39 H    0.960
    23   6 C    3.762 --    22 C    1.427    24 C    1.217    40 H    0.970
    24   6 C    3.802 --    25 C    1.460    23 C    1.217    41 H    0.970
    25   6 C    3.923 --    24 C    1.460     2 C    1.347    42 H    0.968
    26   1 H    0.998 --     6 C    0.967
    27   1 H    0.998 --     7 C    0.971
    28   1 H    0.998 --     8 C    0.971
    29   1 H    0.997 --     9 C    0.970
    30   1 H    0.999 --    10 C    0.961
    31   1 H    0.998 --    12 C    0.962
    32   1 H    0.998 --    13 C    0.970
    33   1 H    0.998 --    14 C    0.971
    34   1 H    0.998 --    15 C    0.971
    35   1 H    0.999 --    16 C    0.969
    36   1 H    0.996 --    18 C    0.964
    37   1 H    0.996 --    19 C    0.969
    38   1 H    0.997 --    21 C    0.962
    39   1 H    0.997 --    22 C    0.960
    40   1 H    0.997 --    23 C    0.970
    41   1 H    0.997 --    24 C    0.970
    42   1 H    0.997 --    25 C    0.968
 ---------------------------------------------------------------------------

Topologies differ in total number of bonds
Writing topology from bond orders to xtbtopo.mol

molecular dipole:
                 x           y           z       tot (Debye)
 q only:        0.192       0.248      -0.422
   full:        0.162      -0.098      -0.593       1.581
molecular quadrupole (traceless):
                xx          xy          yy          xz          yz          zz
 q only:        4.713       0.688      -1.990       3.208      -0.385      -2.723
  q+dip:        4.937       3.163       1.750       5.657      -3.312      -6.687
   full:        4.781       2.743       1.805       5.572      -3.513      -6.586


           -------------------------------------------------
          | TOTAL ENERGY              -66.011454198484 Eh   |
          | GRADIENT NORM               0.099401312552 Eh/α |
          | HOMO-LUMO GAP               0.101795878642 eV   |
           -------------------------------------------------

------------------------------------------------------------------------
 * finished run on 2025/05/15 at 16:28:20.336     
------------------------------------------------------------------------
 total:
 * wall-time:     0 d,  0 h,  0 min,  0.145 sec
 *  cpu-time:     0 d,  0 h,  0 min,  0.129 sec
 * ratio c/w:     0.887 speedup
 SCF:
 * wall-time:     0 d,  0 h,  0 min,  0.130 sec
 *  cpu-time:     0 d,  0 h,  0 min,  0.115 sec
 * ratio c/w:     0.887 speedup


