42
 energy: -66.163836211921 gnorm: 0.000883354161 xtb: 6.7.1 (edcfbbe)
Cl           0.65642983129959       -2.86978770550978        1.16837188406302
C            1.67341382296056       -1.86437365693094        0.18604519393192
C            1.30799962817518       -0.55799759902059       -0.15146951487220
C           -0.02990954949450        0.02537405464819        0.30277154025393
C           -1.11722533417657       -0.94759885662648       -0.15171851759426
C           -1.05606182296931       -1.42905456574367       -1.45785049350922
C           -2.01278920387201       -2.30619442264810       -1.93304896838431
C           -3.04654709943647       -2.71992568655298       -1.10990423801592
C           -3.10999096860952       -2.25158217016002        0.18991648263018
C           -2.15389433598222       -1.37074993434595        0.66745818019358
C           -0.26752366859356        1.42152090596279       -0.28216278222379
C           -1.20409531889203        1.68236943151385       -1.27133451951855
C           -1.39354333661275        2.97445426920114       -1.73545416650313
C           -0.65496748079313        4.02194035013897       -1.21680127347098
C            0.28014558274933        3.77152592082496       -0.22573714812368
C            0.47061616316961        2.48413455941043        0.23748107873680
N           -0.02843429111882        0.21021227691217        1.74817079109080
C            0.93875586913310       -0.09616587139831        2.66518668647144
C            0.47950278643713        0.35823679236028        3.86667730101999
N           -0.73369549284852        0.94935605481743        3.70939704912133
C           -1.00474763412682        0.85424729609345        2.43944971252950
C            2.18167188538986        0.16113606271743       -0.95944580499723
C            3.37524945125502       -0.38150108923036       -1.40206166868981
C            3.72401148594787       -1.67136548430510       -1.04644417889648
C            2.86920078178009       -2.41203533862293       -0.25110381083212
H           -0.24745527532672       -1.11761884286246       -2.10466707297314
H           -1.94655691541314       -2.66977279978337       -2.94811574923228
H           -3.79257037626982       -3.40826852043843       -1.47786574984089
H           -3.90521382087254       -2.57506020130360        0.84523732604709
H           -2.21553131346395       -1.03896882022263        1.69279437703430
H           -1.80120645509857        0.88386807683686       -1.68335100960498
H           -2.12952124739637        3.15817159214330       -2.50450378622718
H           -0.80809622017657        5.02773540034165       -1.57813553916679
H            0.86160578953796        4.58037137487414        0.19043904341733
H            1.20086504461504        2.30161968845001        1.01344759888097
H            1.85608959468919       -0.58180370644546        2.40726944316507
H            0.94549229320974        0.29984539627495        4.82977986373849
H           -1.88152470990505        1.25700733680171        1.97109189809481
H            1.92207332293893        1.16507585012301       -1.25726452315670
H            4.02759606290142        0.20750429412676       -2.02852613463691
H            4.65175698942303       -2.10401177586356       -1.38746337021298
H            3.11882548583348       -3.42196993656100        0.03384457025808
