38
 energy: -65.470895847756 gnorm: 0.000622564716 xtb: 6.7.1 (edcfbbe)
O           -1.02345757760814        1.69533982383651       -2.63786496378150
C           -2.07252783978066        1.38743197015407       -1.76469084746492
C           -1.82593825954186        0.06855108495337       -1.02589347886026
O           -0.64561615791468        0.24629974399918       -0.26043509655531
C           -0.25529506103785       -0.91213274600447        0.42992268254766
C           -1.33190625383277       -1.33565090885673        1.43795311944032
C           -2.64820384767091       -1.56153420969415        0.69227909960762
C           -3.00608428703993       -0.31212038442998       -0.12435978528945
O           -4.13035361788507       -0.54243567284807       -0.92615526203459
O           -3.70984478592847       -1.82049448139693        1.57667639527690
O           -0.98300848997370       -2.52915172934429        2.09302212742819
O            0.90380106926780       -0.64482572220136        1.14820631491071
C            2.00158850318314       -0.29845786574791        0.35377957656252
C            2.68112995133558       -1.27415913154417       -0.35754411745000
C            3.78403937051423       -0.92966722141266       -1.12048540378147
C            4.19912750601251        0.38867582731831       -1.17545821312223
C            3.51765892448254        1.35981263261315       -0.46248865623135
C            2.41448637388409        1.03226666533775        0.31256735336706
C            1.65334464834819        2.07472990226004        1.09389203956577
O            2.30750077197091        3.31322824288999        1.19667131274260
H           -0.20359779159402        1.67797649719479       -2.12882515539898
H           -2.21050058671312        2.18342998416945       -1.01991943564811
H           -2.97694293187050        1.29237019997390       -2.36631789564800
H           -1.67068236485222       -0.73539905528072       -1.76220734797052
H           -0.09335666369416       -1.73482156112757       -0.29894700952120
H           -1.45704704004213       -0.51632373719639        2.16280638319903
H           -2.51577587311782       -2.41492549224817        0.00634406983362
H           -3.19804540368704        0.51155431893812        0.58264358224793
H           -4.80485805192289       -0.94036327394049       -0.35997215304247
H           -3.41298900370105       -2.50137249847862        2.19261866655057
H           -0.09043320870792       -2.42279543173190        2.44430001029404
H            2.34696604290724       -2.30005461357387       -0.30635034755409
H            4.31299526060631       -1.69204999827193       -1.67167074567301
H            5.05327183650742        0.66336946316792       -1.77559506822721
H            3.82878447456800        2.39284526400841       -0.51676433929244
H            1.41669684161353        1.66881617418044        2.08842271221708
H            0.70396154167793        2.27564421831474        0.58653778410115
H            3.14141198123886        3.18629372202200        1.66350209265265
