35
 energy: -63.681735917586 gnorm: 0.000460831964 xtb: 6.7.1 (edcfbbe)
O            2.45714248974172       -2.12818192749566        0.86148650342335
C            1.97410329552887       -1.09876074896701        0.45168366906384
N            0.64441825872760       -0.84386085952760        0.29866970622595
C           -0.45200142889378       -1.66783113197918        0.57654998483495
C           -0.30131925952363       -2.99123362300622        0.97647956965551
C           -1.41395664485182       -3.78277520031048        1.19353835293455
C           -2.68639832057602       -3.27191561613383        1.00242891800853
C           -2.84162135351416       -1.95758339739602        0.60217746158396
C           -1.73933623355284       -1.13650043154124        0.39703237889631
C           -1.95208689912309        0.26610484351673       -0.01119708113097
C           -1.42182881851127        1.32333682221840        0.72809287102728
C           -1.63489134571906        2.63447425037846        0.34361273257168
C           -2.38384465915648        2.89786914705861       -0.79245314179187
Cl          -2.64538318874321        4.53532911087485       -1.28388847016090
C           -2.92933834485990        1.86241573224241       -1.53586306139147
C           -2.71390702613504        0.55578522965815       -1.14078267240455
C            2.81022231627959        0.07166181213353        0.02038549714318
C            2.64902994303142        0.65161937805728       -1.23354339459443
C            3.48730927303773        1.68370739555229       -1.62546625486181
C            4.46980827319204        2.09775790589413       -0.73990588100698
N            4.62517242607529        1.56927891310241        0.46071322072566
C            3.82640429510232        0.59155366811754        0.83072675957325
Cl           4.06156797613990       -0.01391014042867        2.41557385621959
H            0.39275683204279        0.07840231335768       -0.03509824183292
H            0.68931463209166       -3.39018065809797        1.11475635802587
H           -1.28224978902244       -4.80654033014386        1.50881096178230
H           -3.55457804381629       -3.89178544481310        1.16642476740768
H           -3.82997272065803       -1.54410985545080        0.46337810794580
H           -0.86323094054636        1.11959579901495        1.63078708590189
H           -1.22765353379366        3.44764199834438        0.92354716630141
H           -3.51639623845778        2.08024149922118       -2.41422239108410
H           -3.13152842124627       -0.25504281303519       -1.71887042468573
H            1.88623315856893        0.28023293310155       -1.90423402816220
H            3.38354983084498        2.14576410460404       -2.59373507413798
H            5.16449021029830        2.88733932187927       -0.98999581200413
