----- Optimization -----
      -----------------------------------------------------------      
     |                   =====================                   |     
     |                           x T B                           |     
     |                   =====================                   |     
     |                         S. Grimme                         |     
     |          Mulliken Center for Theoretical Chemistry        |     
     |                    University of Bonn                     |     
      -----------------------------------------------------------      

   * xtb version 6.7.1 (edcfbbe) compiled by 'conda@3ef47c1a292c' on 2024-11-25

   xtb is free software: you can redistribute it and/or modify it under
   the terms of the GNU Lesser General Public License as published by
   the Free Software Foundation, either version 3 of the License, or
   (at your option) any later version.
   
   xtb is distributed in the hope that it will be useful,
   but WITHOUT ANY WARRANTY; without even the implied warranty of
   MERCHANTABILITY or FITNESS FOR A PARTICULAR PURPOSE.  See the
   GNU Lesser General Public License for more details.
   
   Cite this work as:
   * C. Bannwarth, E. Caldeweyher, S. Ehlert, A. Hansen, P. Pracht,
     J. Seibert, S. Spicher, S. Grimme, WIREs Comput. Mol. Sci., 2020, 11,
     e01493. DOI: 10.1002/wcms.1493
   
   for GFN2-xTB:
   * C. Bannwarth, S. Ehlert and S. Grimme., J. Chem. Theory Comput., 2019,
     15, 1652-1671. DOI: 10.1021/acs.jctc.8b01176
   for GFN1-xTB:
   * S. Grimme, C. Bannwarth, P. Shushkov, J. Chem. Theory Comput., 2017,
     13, 1989-2009. DOI: 10.1021/acs.jctc.7b00118
   for GFN0-xTB:
   * P. Pracht, E. Caldeweyher, S. Ehlert, S. Grimme, ChemRxiv, 2019, preprint.
     DOI: 10.26434/chemrxiv.8326202.v1
   for GFN-FF:
   * S. Spicher and S. Grimme, Angew. Chem. Int. Ed., 2020, 59, 15665-15673.
     DOI: 10.1002/anie.202004239
   
   for ALPB and GBSA implicit solvation:
   * S. Ehlert, M. Stahn, S. Spicher, S. Grimme, J. Chem. Theory Comput.,
     2021, 17, 4250-4261. DOI: 10.1021/acs.jctc.1c00471
   
   for ddCOSMO and CPCM-X implicit solvation:
   * M. Stahn, S. Ehlert, S. Grimme, J. Phys. Chem. A,
     2023, XX, XXXX-XXXX. DOI: 10.1021/acs.jpca.3c04382
   
   for DFT-D4:
   * E. Caldeweyher, C. Bannwarth and S. Grimme, J. Chem. Phys., 2017,
     147, 034112. DOI: 10.1063/1.4993215
   * E. Caldeweyher, S. Ehlert, A. Hansen, H. Neugebauer, S. Spicher,
     C. Bannwarth and S. Grimme, J. Chem. Phys., 2019, 150, 154122.
     DOI: 10.1063/1.5090222
   * E. Caldeweyher, J.-M. Mewes, S. Ehlert and S. Grimme, Phys. Chem. Chem. Phys.
     2020, 22, 8499-8512. DOI: 10.1039/D0CP00502A
   
   for sTDA-xTB:
   * S. Grimme and C. Bannwarth, J. Chem. Phys., 2016, 145, 054103.
     DOI: 10.1063/1.4959605
   
   in the mass-spec context:
   * V. Asgeirsson, C. Bauer and S. Grimme, Chem. Sci., 2017, 8, 4879.
     DOI: 10.1039/c7sc00601b
   * J. Koopman and S. Grimme, ACS Omega 2019, 4, 12, 15120-15133.
     DOI: 10.1021/acsomega.9b02011
   
   for metadynamics refer to:
   * S. Grimme, J. Chem. Theory Comput., 2019, 155, 2847-2862
     DOI: 10.1021/acs.jctc.9b00143
   
   for SPH calculations refer to:
   * S. Spicher and S. Grimme, J. Chem. Theory Comput., 2021, 17, 1701-1714
     DOI: 10.1021/acs.jctc.0c01306
   
   for ONIOM refer to:
   * C. Plett, A. Katbashev, S. Ehlert, S. Grimme, M. Bursch,
     Phys. Chem. Chem. Phys., 2023, 25, 17860-17868. DOI: 10.1039/D3CP02178E
   
   for DIPRO refer to:
   * J. Kohn, N. Gildemeister, S. Grimme, D. Fazzi, A. Hansen,
     J. Chem. Phys., 2023, just accepted.
   
   for PTB refer to:
   * S. Grimme, M. Mueller, A. Hansen, J. Chem. Phys., 2023, 158, 124111.
     DOI: 10.1063/5.0137838
   
   with help from (in alphabetical order)
   P. Atkinson, C. Bannwarth, F. Bohle, G. Brandenburg, E. Caldeweyher
   M. Checinski, S. Dohm, S. Ehlert, S. Ehrlich, I. Gerasimov, C. Hölzer
   A. Katbashev, J. Kohn, J. Koopman, C. Lavigne, S. Lehtola, F. März, M. Müller,
   F. Musil, H. Neugebauer, J. Pisarek, C. Plett, P. Pracht, F. Pultar,
   J. Seibert, P. Shushkov, S. Spicher, M. Stahn, M. Steiner, T. Strunk,
   J. Stückrath, T. Rose, and J. Unsleber
   
 * started run on 2025/05/15 at 16:14:20.476     
   ID    Z sym.   atoms
    1    8 O      1
    2    6 C      2, 4-13, 15-20, 22
    3    7 N      3, 21
    4   17 Cl     14, 23
    5    1 H      24-35

           -------------------------------------------------
          |                Calculation Setup                |
           -------------------------------------------------

          program call               : xtb /rds/general/user/hgt20/home/callum/QDESCP/Boscalid_rdkit_conf_2/Boscalid_rdkit_conf_2.xyz --opt normal --acc 1 --gfn 2 --chrg 0 --uhf 0 -P 1
          hostname                   : login-c
          coordinate file            : /rds/general/user/hgt20/home/callum/QDESCP/Boscalid_rdkit_conf_2/Boscalid_rdkit_conf_2.xyz
          omp threads                :                     1


           -------------------------------------------------
          |                 G F N 2 - x T B                 |
           -------------------------------------------------

        Reference                      10.1021/acs.jctc.8b01176
      * Hamiltonian:
        H0-scaling (s, p, d)           1.850000    2.230000    2.230000
        zeta-weighting                 0.500000
      * Dispersion:
        s8                             2.700000
        a1                             0.520000
        a2                             5.000000
        s9                             5.000000
      * Repulsion:
        kExp                           1.500000    1.000000
        rExp                           1.000000
      * Coulomb:
        alpha                          2.000000
        third order                    shell-resolved
        anisotropic                    true
        a3                             3.000000
        a5                             4.000000
        cn-shift                       1.200000
        cn-exp                         4.000000
        max-rad                        5.000000


          ...................................................
          :                      SETUP                      :
          :.................................................:
          :  # basis functions                 116          :
          :  # atomic orbitals                 114          :
          :  # shells                           60          :
          :  # electrons                       114          :
          :  max. iterations                   250          :
          :  Hamiltonian                  GFN2-xTB          :
          :  restarted?                      false          :
          :  GBSA solvation                  false          :
          :  PC potential                    false          :
          :  electronic temp.          300.0000000     K    :
          :  accuracy                    1.0000000          :
          :  -> integral cutoff          0.2500000E+02      :
          :  -> integral neglect         0.1000000E-07      :
          :  -> SCF convergence          0.1000000E-05 Eh   :
          :  -> wf. convergence          0.1000000E-03 e    :
          :  Broyden damping             0.4000000          :
          :  net charge                          0          :
          :  unpaired electrons                  0          :
          ...................................................

 iter      E             dE          RMSdq      gap      omega  full diag
   1    -64.4631634 -0.644632E+02  0.496E+00    3.13       0.0  T
   2    -64.5456530 -0.824897E-01  0.292E+00    2.95       1.0  T
   3    -64.5413224  0.433059E-02  0.130E+00    2.99       1.0  T
   4    -64.5528270 -0.115045E-01  0.366E-01    2.89       1.0  T
   5    -64.5556779 -0.285090E-02  0.113E-01    2.93       1.0  T
   6    -64.5557870 -0.109133E-03  0.643E-02    2.92       1.0  T
   7    -64.5558356 -0.485695E-04  0.420E-02    2.93       1.0  T
   8    -64.5558511 -0.155476E-04  0.272E-02    2.93       1.0  T
   9    -64.5558589 -0.777748E-05  0.199E-02    2.93       1.0  T
  10    -64.5558644 -0.553853E-05  0.975E-03    2.93       1.7  T
  11    -64.5558655 -0.101925E-05  0.551E-03    2.93       3.1  T
  12    -64.5558659 -0.466012E-06  0.244E-03    2.93       6.9  T
  13    -64.5558660 -0.425867E-07  0.163E-03    2.93      10.4  T
  14    -64.5558660 -0.260428E-07  0.106E-03    2.93      16.0  T
  15    -64.5558660 -0.111471E-07  0.689E-04    2.93      24.5  T
  16    -64.5558660 -0.631979E-08  0.292E-04    2.93      57.9  T

   *** convergence criteria satisfied after 16 iterations ***

         #    Occupation            Energy/Eh            Energy/eV
      -------------------------------------------------------------
         1        2.0000           -1.0657385             -29.0002
       ...           ...                  ...                  ...
        51        2.0000           -0.4276727             -11.6376
        52        2.0000           -0.4182267             -11.3805
        53        2.0000           -0.4123030             -11.2193
        54        2.0000           -0.4110400             -11.1850
        55        2.0000           -0.4066718             -11.0661
        56        2.0000           -0.3958991             -10.7730
        57        2.0000           -0.3940681             -10.7231 (HOMO)
        58                         -0.2864017              -7.7934 (LUMO)
        59                         -0.2723834              -7.4119
        60                         -0.2556980              -6.9579
        61                         -0.2545651              -6.9271
        62                         -0.2458882              -6.6910
       ...                                ...                  ...
       114                          0.6405268              17.4296
      -------------------------------------------------------------
                  HL-Gap            0.1076664 Eh            2.9298 eV
             Fermi-level           -0.3402349 Eh           -9.2583 eV

 SCC (total)                   0 d,  0 h,  0 min,  0.063 sec
 SCC setup                      ...        0 min,  0.000 sec (  0.535%)
 Dispersion                     ...        0 min,  0.000 sec (  0.618%)
 classical contributions        ...        0 min,  0.000 sec (  0.168%)
 integral evaluation            ...        0 min,  0.008 sec ( 11.939%)
 iterations                     ...        0 min,  0.035 sec ( 54.776%)
 molecular gradient             ...        0 min,  0.020 sec ( 31.662%)
 printout                       ...        0 min,  0.000 sec (  0.291%)

         :::::::::::::::::::::::::::::::::::::::::::::::::::::
         ::                     SUMMARY                     ::
         :::::::::::::::::::::::::::::::::::::::::::::::::::::
         :: total energy             -63.671281699415 Eh    ::
         :: gradient norm              0.084593120838 Eh/a0 ::
         :: HOMO-LUMO gap              2.929753012983 eV    ::
         ::.................................................::
         :: SCC energy               -64.555242652294 Eh    ::
         :: -> isotropic ES            0.051327160156 Eh    ::
         :: -> anisotropic ES         -0.000148947975 Eh    ::
         :: -> anisotropic XC          0.033894136637 Eh    ::
         :: -> dispersion             -0.042658916108 Eh    ::
         :: repulsion energy           0.883960952879 Eh    ::
         :: add. restraining           0.000000000000 Eh    ::
         :: total charge              -0.000000000000 e     ::
         :::::::::::::::::::::::::::::::::::::::::::::::::::::

      ----------------------------------------------------------- 
     |                   =====================                   |
     |                        A N C O P T                        |
     |                   =====================                   |
     |               Approximate Normal Coordinate               |
     |                Rational Function Optimizer                |
      ----------------------------------------------------------- 
      ----------------------------------------------------------- 
     |                   =====================                   |
     |                        A N C O P T                        |
     |                   =====================                   |
     |               Approximate Normal Coordinate               |
     |                Rational Function Optimizer                |
      ----------------------------------------------------------- 

          ...................................................
          :                      SETUP                      :
          :.................................................:
          :   optimization level            normal          :
          :   max. optcycles                   200          :
          :   ANC micro-cycles                  20          :
          :   degrees of freedom                99          :
          :.................................................:
          :   RF solver                   davidson          :
          :   write xtbopt.log                true          :
          :   linear?                        false          :
          :   energy convergence         0.5000000E-05 Eh   :
          :   grad. convergence          0.1000000E-02 Eh/α :
          :   maxmium RF displ.          1.0000000          :
          :   Hlow (freq-cutoff)         0.1000000E-01      :
          :   Hmax (freq-cutoff)         5.0000000          :
          :   S6 in model hess.         20.0000000          :
          ...................................................

generating ANC from exact Hessian ...
Using Lindh-Hessian (1995)
 Shifting diagonal of input Hessian by    9.5493460147461785E-003
 Lowest  eigenvalues of input Hessian
    0.000000    0.000000    0.000000    0.000000    0.000000    0.000000
    0.010000    0.010043    0.010341    0.011071    0.011555    0.011952
    0.014278    0.014793    0.018269    0.020026    0.021124    0.022638
 Highest eigenvalues
    1.931233    1.972438    2.010388    2.022443    2.081819    2.320180


........................................................................
.............................. CYCLE    1 ..............................
........................................................................

 iter      E             dE          RMSdq      gap      omega  full diag
   1    -64.5558660 -0.645559E+02  0.167E-04    2.93       0.0  T
   2    -64.5558660 -0.151999E-09  0.121E-04    2.93     139.2  T
   3    -64.5558660 -0.892868E-10  0.896E-05    2.93     188.6  T
     SCC iter.                  ...        0 min,  0.022 sec
     gradient                   ...        0 min,  0.020 sec
 * total energy  :   -63.6712817 Eh     change       -0.1010420E-08 Eh
   gradient norm :     0.0845946 Eh/α   predicted     0.0000000E+00 (-100.00%)
   displ. norm   :     0.2407163 α      lambda       -0.1094691E-01
   maximum displ.:     0.0862547 α      in ANC's #51, #18, #58, ...

........................................................................
.............................. CYCLE    2 ..............................
........................................................................

 iter      E             dE          RMSdq      gap      omega  full diag
   1    -64.6070681 -0.646071E+02  0.187E-01    3.03       0.0  T
   2    -64.6071510 -0.828212E-04  0.123E-01    3.05       1.0  T
   3    -64.6071215  0.294410E-04  0.638E-02    3.04       1.0  T
   4    -64.6072068 -0.852924E-04  0.113E-02    3.05       1.5  T
   5    -64.6072085 -0.169478E-05  0.680E-03    3.05       2.5  T
   6    -64.6072088 -0.260495E-06  0.502E-03    3.05       3.4  T
   7    -64.6072090 -0.217884E-06  0.368E-03    3.05       4.6  T
   8    -64.6072092 -0.206327E-06  0.187E-03    3.05       9.0  T
   9    -64.6072092 -0.472243E-07  0.990E-04    3.05      17.1  T
  10    -64.6072092 -0.125360E-07  0.458E-04    3.05      36.9  T
     SCC iter.                  ...        0 min,  0.021 sec
     gradient                   ...        0 min,  0.020 sec
 * total energy  :   -63.6785927 Eh     change       -0.7311026E-02 Eh
   gradient norm :     0.0331594 Eh/α   predicted    -0.5792219E-02 ( -20.77%)
   displ. norm   :     0.1859771 α      lambda       -0.2405197E-02
   maximum displ.:     0.0936105 α      in ANC's #8, #18, #9, ...

........................................................................
.............................. CYCLE    3 ..............................
........................................................................

 iter      E             dE          RMSdq      gap      omega  full diag
   1    -64.6276305 -0.646276E+02  0.114E-01    3.07       0.0  T
   2    -64.6276625 -0.319844E-04  0.755E-02    3.08       1.0  T
   3    -64.6276521  0.103535E-04  0.396E-02    3.07       1.0  T
   4    -64.6276835 -0.313335E-04  0.671E-03    3.08       2.5  T
   5    -64.6276841 -0.598782E-06  0.407E-03    3.08       4.2  T
   6    -64.6276842 -0.100106E-06  0.304E-03    3.08       5.6  T
   7    -64.6276842 -0.736537E-07  0.207E-03    3.08       8.2  T
   8    -64.6276843 -0.597895E-07  0.988E-04    3.08      17.1  T
   9    -64.6276843 -0.147697E-07  0.521E-04    3.08      32.5  T
     SCC iter.                  ...        0 min,  0.034 sec
     gradient                   ...        0 min,  0.020 sec
 * total energy  :   -63.6798814 Eh     change       -0.1288635E-02 Eh
   gradient norm :     0.0076366 Eh/α   predicted    -0.1244404E-02 (  -3.43%)
   displ. norm   :     0.1060796 α      lambda       -0.2468629E-03
   maximum displ.:     0.0773933 α      in ANC's #8, #1, #7, ...

........................................................................
.............................. CYCLE    4 ..............................
........................................................................

 iter      E             dE          RMSdq      gap      omega  full diag
   1    -64.6264378 -0.646264E+02  0.474E-02    3.07       0.0  T
   2    -64.6264386 -0.746147E-06  0.278E-02    3.07       1.0  T
   3    -64.6264376  0.927762E-06  0.678E-03    3.07       2.5  T
   4    -64.6264390 -0.136405E-05  0.248E-03    3.07       6.8  T
   5    -64.6264390 -0.309478E-07  0.190E-03    3.07       8.9  T
   6    -64.6264391 -0.371813E-07  0.109E-03    3.07      15.5  T
   7    -64.6264391 -0.136171E-07  0.627E-04    3.07      27.0  T
   8    -64.6264391 -0.443282E-08  0.284E-04    3.07      59.5  T
     SCC iter.                  ...        0 min,  0.017 sec
     gradient                   ...        0 min,  0.041 sec
 * total energy  :   -63.6800521 Eh     change       -0.1707598E-03 Eh
   gradient norm :     0.0044907 Eh/α   predicted    -0.1248286E-03 ( -26.90%)
   displ. norm   :     0.1502546 α      lambda       -0.1742017E-03
   maximum displ.:     0.1090215 α      in ANC's #8, #1, #7, ...

........................................................................
.............................. CYCLE    5 ..............................
........................................................................

 iter      E             dE          RMSdq      gap      omega  full diag
   1    -64.6240567 -0.646241E+02  0.551E-02    3.07       0.0  T
   2    -64.6240571 -0.478140E-06  0.324E-02    3.07       1.0  T
   3    -64.6240562  0.901838E-06  0.632E-03    3.07       2.7  T
   4    -64.6240574 -0.118699E-05  0.165E-03    3.07      10.2  T
   5    -64.6240574 -0.108878E-07  0.127E-03    3.07      13.3  T
   6    -64.6240574 -0.188529E-07  0.778E-04    3.07      21.7  T
   7    -64.6240575 -0.660116E-08  0.473E-04    3.07      35.7  T
     SCC iter.                  ...        0 min,  0.015 sec
     gradient                   ...        0 min,  0.020 sec
 * total energy  :   -63.6801621 Eh     change       -0.1099756E-03 Eh
   gradient norm :     0.0027926 Eh/α   predicted    -0.8907391E-04 ( -19.01%)
   displ. norm   :     0.1006416 α      lambda       -0.5704269E-04
   maximum displ.:     0.0576062 α      in ANC's #1, #8, #4, ...

........................................................................
.............................. CYCLE    6 ..............................
........................................................................

 iter      E             dE          RMSdq      gap      omega  full diag
   1    -64.6236841 -0.646237E+02  0.330E-02    3.07       0.0  T
   2    -64.6236843 -0.168586E-06  0.194E-02    3.07       1.0  T
   3    -64.6236839  0.378613E-06  0.342E-03    3.07       4.9  T
   4    -64.6236844 -0.454402E-06  0.584E-04    3.07      29.0  T
   5    -64.6236844 -0.334119E-08  0.347E-04    3.07      48.7  T
     SCC iter.                  ...        0 min,  0.011 sec
     gradient                   ...        0 min,  0.020 sec
 * total energy  :   -63.6802056 Eh     change       -0.4349376E-04 Eh
   gradient norm :     0.0022987 Eh/α   predicted    -0.2881124E-04 ( -33.76%)
   displ. norm   :     0.1275540 α      lambda       -0.5760392E-04
   maximum displ.:     0.0761485 α      in ANC's #1, #4, #6, ...

........................................................................
.............................. CYCLE    7 ..............................
........................................................................

 iter      E             dE          RMSdq      gap      omega  full diag
   1    -64.6241614 -0.646242E+02  0.425E-02    3.07       0.0  T
   2    -64.6241617 -0.330127E-06  0.249E-02    3.07       1.0  T
   3    -64.6241613  0.385486E-06  0.356E-03    3.07       4.8  T
   4    -64.6241618 -0.496370E-06  0.107E-03    3.07      15.8  T
   5    -64.6241618 -0.141076E-07  0.726E-04    3.07      23.3  T
   6    -64.6241618 -0.349435E-08  0.494E-04    3.07      34.2  T
     SCC iter.                  ...        0 min,  0.013 sec
     gradient                   ...        0 min,  0.020 sec
 * total energy  :   -63.6802500 Eh     change       -0.4445841E-04 Eh
   gradient norm :     0.0021031 Eh/α   predicted    -0.2927124E-04 ( -34.16%)
   displ. norm   :     0.1507489 α      lambda       -0.5464643E-04
   maximum displ.:     0.0896413 α      in ANC's #1, #4, #6, ...

........................................................................
.............................. CYCLE    8 ..............................
........................................................................

 iter      E             dE          RMSdq      gap      omega  full diag
   1    -64.6248293 -0.646248E+02  0.492E-02    3.07       0.0  T
   2    -64.6248297 -0.394454E-06  0.288E-02    3.07       1.0  T
   3    -64.6248293  0.432789E-06  0.388E-03    3.07       4.4  T
   4    -64.6248299 -0.579449E-06  0.118E-03    3.07      14.3  T
   5    -64.6248299 -0.138989E-07  0.840E-04    3.07      20.1  T
   6    -64.6248299 -0.501258E-08  0.558E-04    3.07      30.3  T
     SCC iter.                  ...        0 min,  0.013 sec
     gradient                   ...        0 min,  0.041 sec
 * total energy  :   -63.6802961 Eh     change       -0.4608645E-04 Eh
   gradient norm :     0.0024642 Eh/α   predicted    -0.2794630E-04 ( -39.36%)
   displ. norm   :     0.2124427 α      lambda       -0.7562403E-04
   maximum displ.:     0.1234102 α      in ANC's #1, #4, #6, ...

........................................................................
.............................. CYCLE    9 ..............................
........................................................................

 iter      E             dE          RMSdq      gap      omega  full diag
   1    -64.6253217 -0.646253E+02  0.679E-02    3.07       0.0  T
   2    -64.6253223 -0.590240E-06  0.398E-02    3.07       1.0  T
   3    -64.6253212  0.110550E-05  0.576E-03    3.07       2.9  T
   4    -64.6253226 -0.138984E-05  0.121E-03    3.07      14.0  T
   5    -64.6253226 -0.106600E-07  0.839E-04    3.07      20.1  T
   6    -64.6253226 -0.414131E-08  0.583E-04    3.07      29.0  T
     SCC iter.                  ...        0 min,  0.013 sec
     gradient                   ...        0 min,  0.020 sec
 * total energy  :   -63.6803643 Eh     change       -0.6817402E-04 Eh
   gradient norm :     0.0029646 Eh/α   predicted    -0.3952409E-04 ( -42.02%)
   displ. norm   :     0.3487658 α      lambda       -0.1294135E-03
   maximum displ.:     0.1994263 α      in ANC's #1, #4, #6, ...

........................................................................
.............................. CYCLE   10 ..............................
........................................................................

 iter      E             dE          RMSdq      gap      omega  full diag
   1    -64.6250686 -0.646251E+02  0.111E-01    3.07       0.0  T
   2    -64.6250699 -0.130041E-05  0.648E-02    3.07       1.0  T
   3    -64.6250664  0.347638E-05  0.985E-03    3.07       1.7  T
   4    -64.6250706 -0.423711E-05  0.145E-03    3.07      11.7  T
   5    -64.6250707 -0.845252E-08  0.945E-04    3.07      17.9  T
   6    -64.6250707 -0.916653E-08  0.556E-04    3.07      30.4  T
     SCC iter.                  ...        0 min,  0.013 sec
     gradient                   ...        0 min,  0.020 sec
 * total energy  :   -63.6804811 Eh     change       -0.1167780E-03 Eh
   gradient norm :     0.0039418 Eh/α   predicted    -0.7258106E-04 ( -37.85%)
   displ. norm   :     0.5185041 α      lambda       -0.1948348E-03
   maximum displ.:     0.2970662 α      in ANC's #4, #1, #6, ...

........................................................................
.............................. CYCLE   11 ..............................
........................................................................

 iter      E             dE          RMSdq      gap      omega  full diag
   1    -64.6231599 -0.646232E+02  0.166E-01    3.06       0.0  T
   2    -64.6231627 -0.282339E-05  0.971E-02    3.06       1.0  T
   3    -64.6231535  0.919728E-05  0.161E-02    3.06       1.0  T
   4    -64.6231645 -0.110550E-04  0.214E-03    3.06       7.9  T
   5    -64.6231646 -0.147817E-07  0.146E-03    3.06      11.6  T
   6    -64.6231646 -0.262904E-07  0.811E-04    3.06      20.8  T
   7    -64.6231646 -0.611237E-08  0.598E-04    3.06      28.3  T
     SCC iter.                  ...        0 min,  0.018 sec
     gradient                   ...        0 min,  0.020 sec
 * total energy  :   -63.6806359 Eh     change       -0.1547996E-03 Eh
   gradient norm :     0.0061628 Eh/α   predicted    -0.1236098E-03 ( -20.15%)
   displ. norm   :     0.4058364 α      lambda       -0.1712812E-03
   maximum displ.:     0.2392520 α      in ANC's #4, #1, #6, ...

........................................................................
.............................. CYCLE   12 ..............................
........................................................................

 iter      E             dE          RMSdq      gap      omega  full diag
   1    -64.6224187 -0.646224E+02  0.133E-01    3.05       0.0  T
   2    -64.6224206 -0.183746E-05  0.779E-02    3.05       1.0  T
   3    -64.6224146  0.594668E-05  0.131E-02    3.05       1.3  T
   4    -64.6224218 -0.719601E-05  0.214E-03    3.05       7.9  T
   5    -64.6224219 -0.186094E-07  0.156E-03    3.05      10.8  T
   6    -64.6224219 -0.214318E-07  0.992E-04    3.05      17.0  T
   7    -64.6224219 -0.113026E-07  0.708E-04    3.05      23.9  T
     SCC iter.                  ...        0 min,  0.015 sec
     gradient                   ...        0 min,  0.020 sec
 * total energy  :   -63.6807705 Eh     change       -0.1346123E-03 Eh
   gradient norm :     0.0065764 Eh/α   predicted    -0.9974679E-04 ( -25.90%)
   displ. norm   :     0.3403667 α      lambda       -0.2244296E-03
   maximum displ.:     0.2122267 α      in ANC's #4, #1, #6, ...

........................................................................
.............................. CYCLE   13 ..............................
........................................................................

 iter      E             dE          RMSdq      gap      omega  full diag
   1    -64.6244189 -0.646244E+02  0.120E-01    3.04       0.0  T
   2    -64.6244209 -0.195204E-05  0.703E-02    3.04       1.0  T
   3    -64.6244172  0.363352E-05  0.106E-02    3.04       1.6  T
   4    -64.6244218 -0.459404E-05  0.258E-03    3.04       6.5  T
   5    -64.6244219 -0.516515E-07  0.190E-03    3.04       8.9  T
   6    -64.6244219 -0.245418E-07  0.120E-03    3.04      14.1  T
   7    -64.6244219 -0.178200E-07  0.796E-04    3.04      21.2  T
   8    -64.6244219 -0.676894E-08  0.376E-04    3.04      44.9  T
     SCC iter.                  ...        0 min,  0.026 sec
     gradient                   ...        0 min,  0.020 sec
 * total energy  :   -63.6809270 Eh     change       -0.1565438E-03 Eh
   gradient norm :     0.0043682 Eh/α   predicted    -0.1252155E-03 ( -20.01%)
   displ. norm   :     0.4930139 α      lambda       -0.1661295E-03
   maximum displ.:     0.3190563 α      in ANC's #4, #1, #6, ...

........................................................................
.............................. CYCLE   14 ..............................
........................................................................

 iter      E             dE          RMSdq      gap      omega  full diag
   1    -64.6207932 -0.646208E+02  0.170E-01    3.02       0.0  T
   2    -64.6207966 -0.331422E-05  0.998E-02    3.02       1.0  T
   3    -64.6207878  0.878426E-05  0.164E-02    3.02       1.0  T
   4    -64.6207985 -0.107176E-04  0.266E-03    3.02       6.3  T
   5    -64.6207985 -0.393142E-07  0.183E-03    3.02       9.2  T
   6    -64.6207986 -0.180294E-07  0.113E-03    3.02      15.0  T
   7    -64.6207986 -0.139834E-07  0.800E-04    3.02      21.1  T
   8    -64.6207986 -0.651298E-08  0.452E-04    3.02      37.4  T
     SCC iter.                  ...        0 min,  0.017 sec
     gradient                   ...        0 min,  0.020 sec
 * total energy  :   -63.6810260 Eh     change       -0.9897009E-04 Eh
   gradient norm :     0.0056104 Eh/α   predicted    -0.1032556E-03 (   4.33%)
   displ. norm   :     0.1909351 α      lambda       -0.1496003E-03
   maximum displ.:     0.1335040 α      in ANC's #4, #5, #1, ...

........................................................................
.............................. CYCLE   15 ..............................
........................................................................

 iter      E             dE          RMSdq      gap      omega  full diag
   1    -64.6236673 -0.646237E+02  0.757E-02    3.01       0.0  T
   2    -64.6236687 -0.136832E-05  0.447E-02    3.01       1.0  T
   3    -64.6236636  0.509244E-05  0.120E-02    3.01       1.4  T
   4    -64.6236696 -0.602207E-05  0.244E-03    3.01       6.9  T
   5    -64.6236697 -0.565759E-07  0.183E-03    3.01       9.2  T
   6    -64.6236697 -0.288624E-07  0.127E-03    3.01      13.3  T
   7    -64.6236697 -0.196587E-07  0.811E-04    3.01      20.8  T
   8    -64.6236697 -0.871280E-08  0.418E-04    3.01      40.5  T
     SCC iter.                  ...        0 min,  0.017 sec
     gradient                   ...        0 min,  0.020 sec
 * total energy  :   -63.6811214 Eh     change       -0.9536004E-04 Eh
   gradient norm :     0.0036003 Eh/α   predicted    -0.7752946E-04 ( -18.70%)
   displ. norm   :     0.2746135 α      lambda       -0.9632792E-04
   maximum displ.:     0.1997285 α      in ANC's #4, #1, #5, ...

........................................................................
.............................. CYCLE   16 ..............................
........................................................................

 iter      E             dE          RMSdq      gap      omega  full diag
   1    -64.6236333 -0.646236E+02  0.104E-01    2.99       0.0  T
   2    -64.6236345 -0.116957E-05  0.610E-02    3.00       1.0  T
   3    -64.6236315  0.303972E-05  0.918E-03    2.99       1.8  T
   4    -64.6236352 -0.369692E-05  0.157E-03    2.99      10.8  T
   5    -64.6236352 -0.109992E-07  0.951E-04    2.99      17.8  T
   6    -64.6236352 -0.862143E-08  0.610E-04    2.99      27.7  T
     SCC iter.                  ...        0 min,  0.013 sec
     gradient                   ...        0 min,  0.020 sec
 * total energy  :   -63.6811991 Eh     change       -0.7769216E-04 Eh
   gradient norm :     0.0035658 Eh/α   predicted    -0.5179749E-04 ( -33.33%)
   displ. norm   :     0.3167255 α      lambda       -0.1646260E-03
   maximum displ.:     0.2298957 α      in ANC's #4, #5, #2, ...

........................................................................
.............................. CYCLE   17 ..............................
........................................................................

 iter      E             dE          RMSdq      gap      omega  full diag
   1    -64.6259643 -0.646260E+02  0.126E-01    2.98       0.0  T
   2    -64.6259664 -0.217116E-05  0.741E-02    2.99       1.0  T
   3    -64.6259604  0.601000E-05  0.132E-02    2.98       1.3  T
   4    -64.6259678 -0.733884E-05  0.306E-03    2.98       5.5  T
   5    -64.6259678 -0.545267E-07  0.213E-03    2.98       7.9  T
   6    -64.6259679 -0.364932E-07  0.161E-03    2.98      10.5  T
   7    -64.6259679 -0.364006E-07  0.102E-03    2.98      16.6  T
   8    -64.6259679 -0.146841E-07  0.564E-04    2.98      30.0  T
   9    -64.6259679 -0.602279E-08  0.221E-04    2.98      76.4  T
     SCC iter.                  ...        0 min,  0.021 sec
     gradient                   ...        0 min,  0.020 sec
 * total energy  :   -63.6813068 Eh     change       -0.1077752E-03 Eh
   gradient norm :     0.0040895 Eh/α   predicted    -0.9057037E-04 ( -15.96%)
   displ. norm   :     0.3352081 α      lambda       -0.8380202E-04
   maximum displ.:     0.2513687 α      in ANC's #4, #1, #5, ...

........................................................................
.............................. CYCLE   18 ..............................
........................................................................

 iter      E             dE          RMSdq      gap      omega  full diag
   1    -64.6233480 -0.646233E+02  0.132E-01    2.97       0.0  T
   2    -64.6233497 -0.169681E-05  0.776E-02    2.97       1.0  T
   3    -64.6233460  0.369983E-05  0.107E-02    2.97       1.6  T
   4    -64.6233505 -0.456392E-05  0.166E-03    2.97      10.2  T
   5    -64.6233506 -0.132908E-07  0.926E-04    2.97      18.2  T
   6    -64.6233506 -0.887235E-08  0.456E-04    2.97      37.1  T
     SCC iter.                  ...        0 min,  0.013 sec
     gradient                   ...        0 min,  0.020 sec
 * total energy  :   -63.6813499 Eh     change       -0.4309229E-04 Eh
   gradient norm :     0.0048706 Eh/α   predicted    -0.4660943E-04 (   8.16%)
   displ. norm   :     0.1414102 α      lambda       -0.8199874E-04
   maximum displ.:     0.0832487 α      in ANC's #2, #6, #5, ...

........................................................................
.............................. CYCLE   19 ..............................
........................................................................

 iter      E             dE          RMSdq      gap      omega  full diag
   1    -64.6256529 -0.646257E+02  0.499E-02    2.97       0.0  T
   2    -64.6256532 -0.342219E-06  0.293E-02    2.97       1.0  T
   3    -64.6256522  0.103894E-05  0.578E-03    2.97       2.9  T
   4    -64.6256534 -0.126026E-05  0.105E-03    2.97      16.0  T
   5    -64.6256534 -0.466933E-08  0.754E-04    2.97      22.4  T
   6    -64.6256534 -0.606144E-08  0.474E-04    2.97      35.7  T
     SCC iter.                  ...        0 min,  0.013 sec
     gradient                   ...        0 min,  0.020 sec
 * total energy  :   -63.6814010 Eh     change       -0.5102470E-04 Eh
   gradient norm :     0.0031462 Eh/α   predicted    -0.4182060E-04 ( -18.04%)
   displ. norm   :     0.1393538 α      lambda       -0.4962133E-04
   maximum displ.:     0.0935345 α      in ANC's #2, #4, #5, ...

........................................................................
.............................. CYCLE   20 ..............................
........................................................................

 iter      E             dE          RMSdq      gap      omega  full diag
   1    -64.6257002 -0.646257E+02  0.545E-02    2.96       0.0  T
   2    -64.6257007 -0.412251E-06  0.320E-02    2.96       1.0  T
   3    -64.6256994  0.128785E-05  0.576E-03    2.96       2.9  T
   4    -64.6257009 -0.154607E-05  0.127E-03    2.96      13.3  T
   5    -64.6257009 -0.123228E-07  0.919E-04    2.96      18.4  T
   6    -64.6257009 -0.699994E-08  0.597E-04    2.96      28.3  T
     SCC iter.                  ...        0 min,  0.013 sec
     gradient                   ...        0 min,  0.053 sec
 * total energy  :   -63.6814377 Eh     change       -0.3672827E-04 Eh
   gradient norm :     0.0024207 Eh/α   predicted    -0.2529302E-04 ( -31.13%)
   displ. norm   :     0.1884792 α      lambda       -0.6720100E-04
   maximum displ.:     0.1404298 α      in ANC's #2, #4, #7, ...
 * RMSD in coord.:     0.6475244 α      energy gain  -0.1015599E-01 Eh

generating ANC from exact Hessian ...
Using Lindh-Hessian (1995)
 Shifting diagonal of input Hessian by    9.5818819959704420E-003
 Lowest  eigenvalues of input Hessian
    0.000000    0.000000    0.000000    0.000000    0.000000    0.000000
    0.010000    0.010101    0.010469    0.011187    0.011686    0.012220
    0.014375    0.015476    0.019126    0.019981    0.022279    0.024545
 Highest eigenvalues
    2.007691    2.036883    2.081473    2.144913    2.181956    2.401871


........................................................................
.............................. CYCLE   21 ..............................
........................................................................

 iter      E             dE          RMSdq      gap      omega  full diag
   1    -64.6252593 -0.646253E+02  0.735E-02    2.96       0.0  T
   2    -64.6252603 -0.100127E-05  0.431E-02    2.96       1.0  T
   3    -64.6252576  0.271507E-05  0.863E-03    2.95       2.0  T
   4    -64.6252609 -0.331693E-05  0.237E-03    2.96       7.1  T
   5    -64.6252610 -0.459553E-07  0.181E-03    2.96       9.4  T
   6    -64.6252610 -0.281018E-07  0.120E-03    2.96      14.1  T
   7    -64.6252610 -0.177399E-07  0.755E-04    2.96      22.4  T
   8    -64.6252610 -0.813061E-08  0.353E-04    2.96      47.8  T
     SCC iter.                  ...        0 min,  0.018 sec
     gradient                   ...        0 min,  0.054 sec
 * total energy  :   -63.6814787 Eh     change       -0.4097304E-04 Eh
   gradient norm :     0.0034478 Eh/α   predicted     0.0000000E+00 (-100.00%)
   displ. norm   :     0.0367772 α      lambda       -0.1822922E-04
   maximum displ.:     0.0232533 α      in ANC's #2, #6, #3, ...

........................................................................
.............................. CYCLE   22 ..............................
........................................................................

 iter      E             dE          RMSdq      gap      omega  full diag
   1    -64.6251678 -0.646252E+02  0.140E-02    2.95       0.0  T
   2    -64.6251679 -0.688020E-07  0.823E-03    2.95       2.1  T
   3    -64.6251677  0.182835E-06  0.224E-03    2.95       7.5  T
   4    -64.6251679 -0.218139E-06  0.486E-04    2.95      34.8  T
   5    -64.6251680 -0.314067E-08  0.339E-04    2.95      49.9  T
     SCC iter.                  ...        0 min,  0.011 sec
     gradient                   ...        0 min,  0.020 sec
 * total energy  :   -63.6815016 Eh     change       -0.2292561E-04 Eh
   gradient norm :     0.0017445 Eh/α   predicted    -0.1400691E-04 ( -38.90%)
   displ. norm   :     0.1517152 α      lambda       -0.4711320E-04
   maximum displ.:     0.0926292 α      in ANC's #2, #6, #3, ...

........................................................................
.............................. CYCLE   23 ..............................
........................................................................

 iter      E             dE          RMSdq      gap      omega  full diag
   1    -64.6247705 -0.646248E+02  0.514E-02    2.95       0.0  T
   2    -64.6247712 -0.665966E-06  0.300E-02    2.95       1.0  T
   3    -64.6247698  0.137434E-05  0.637E-03    2.95       2.7  T
   4    -64.6247715 -0.168448E-05  0.159E-03    2.95      10.6  T
   5    -64.6247715 -0.275819E-07  0.116E-03    2.95      14.6  T
   6    -64.6247715 -0.998416E-08  0.785E-04    2.95      21.5  T
   7    -64.6247715 -0.747609E-08  0.518E-04    2.95      32.6  T
     SCC iter.                  ...        0 min,  0.054 sec
     gradient                   ...        0 min,  0.020 sec
 * total energy  :   -63.6815406 Eh     change       -0.3904335E-04 Eh
   gradient norm :     0.0034032 Eh/α   predicted    -0.2379884E-04 ( -39.05%)
   displ. norm   :     0.0552567 α      lambda       -0.1823634E-04
   maximum displ.:     0.0359534 α      in ANC's #2, #6, #1, ...

........................................................................
.............................. CYCLE   24 ..............................
........................................................................

 iter      E             dE          RMSdq      gap      omega  full diag
   1    -64.6248010 -0.646248E+02  0.174E-02    2.95       0.0  T
   2    -64.6248011 -0.412851E-07  0.102E-02    2.95       1.7  T
   3    -64.6248010  0.872504E-07  0.169E-03    2.95      10.0  T
   4    -64.6248011 -0.109372E-06  0.385E-04    2.95      43.9  T
   5    -64.6248011 -0.713044E-09  0.258E-04    2.95      65.4  T
     SCC iter.                  ...        0 min,  0.011 sec
     gradient                   ...        0 min,  0.020 sec
 * total energy  :   -63.6815575 Eh     change       -0.1689986E-04 Eh
   gradient norm :     0.0029266 Eh/α   predicted    -0.9147739E-05 ( -45.87%)
   displ. norm   :     0.1374225 α      lambda       -0.4685871E-04
   maximum displ.:     0.0864177 α      in ANC's #2, #1, #3, ...

........................................................................
.............................. CYCLE   25 ..............................
........................................................................

 iter      E             dE          RMSdq      gap      omega  full diag
   1    -64.6248722 -0.646249E+02  0.438E-02    2.95       0.0  T
   2    -64.6248725 -0.283222E-06  0.257E-02    2.95       1.0  T
   3    -64.6248717  0.808459E-06  0.475E-03    2.95       3.6  T
   4    -64.6248727 -0.979717E-06  0.935E-04    2.95      18.1  T
   5    -64.6248727 -0.392050E-08  0.586E-04    2.95      28.8  T
     SCC iter.                  ...        0 min,  0.011 sec
     gradient                   ...        0 min,  0.020 sec
 * total energy  :   -63.6815948 Eh     change       -0.3729512E-04 Eh
   gradient norm :     0.0013315 Eh/α   predicted    -0.2387659E-04 ( -35.98%)
   displ. norm   :     0.2522972 α      lambda       -0.3632061E-04
   maximum displ.:     0.1605039 α      in ANC's #2, #1, #3, ...

........................................................................
.............................. CYCLE   26 ..............................
........................................................................

 iter      E             dE          RMSdq      gap      omega  full diag
   1    -64.6245461 -0.646245E+02  0.800E-02    2.95       0.0  T
   2    -64.6245469 -0.770878E-06  0.468E-02    2.95       1.0  T
   3    -64.6245450  0.193011E-05  0.727E-03    2.95       2.3  T
   4    -64.6245474 -0.239286E-05  0.163E-03    2.95      10.3  T
   5    -64.6245474 -0.109421E-07  0.993E-04    2.95      17.0  T
   6    -64.6245474 -0.753617E-08  0.600E-04    2.95      28.2  T
     SCC iter.                  ...        0 min,  0.013 sec
     gradient                   ...        0 min,  0.020 sec
 * total energy  :   -63.6816292 Eh     change       -0.3433710E-04 Eh
   gradient norm :     0.0023457 Eh/α   predicted    -0.1867477E-04 ( -45.61%)
   displ. norm   :     0.0692921 α      lambda       -0.1293927E-04
   maximum displ.:     0.0466690 α      in ANC's #2, #1, #3, ...

........................................................................
.............................. CYCLE   27 ..............................
........................................................................

 iter      E             dE          RMSdq      gap      omega  full diag
   1    -64.6247613 -0.646248E+02  0.221E-02    2.95       0.0  T
   2    -64.6247613 -0.417943E-07  0.130E-02    2.95       1.3  T
   3    -64.6247613  0.574166E-07  0.139E-03    2.95      12.1  T
   4    -64.6247613 -0.786691E-07  0.418E-04    2.95      40.5  T
   5    -64.6247613 -0.926605E-09  0.265E-04    2.95      63.7  T
     SCC iter.                  ...        0 min,  0.011 sec
     gradient                   ...        0 min,  0.020 sec
 * total energy  :   -63.6816410 Eh     change       -0.1180322E-04 Eh
   gradient norm :     0.0017788 Eh/α   predicted    -0.6510673E-05 ( -44.84%)
   displ. norm   :     0.1626557 α      lambda       -0.2482873E-04
   maximum displ.:     0.1081382 α      in ANC's #2, #1, #3, ...

........................................................................
.............................. CYCLE   28 ..............................
........................................................................

 iter      E             dE          RMSdq      gap      omega  full diag
   1    -64.6252796 -0.646253E+02  0.530E-02    2.95       0.0  T
   2    -64.6252798 -0.234608E-06  0.311E-02    2.95       1.0  T
   3    -64.6252795  0.328259E-06  0.322E-03    2.95       5.3  T
   4    -64.6252799 -0.431868E-06  0.858E-04    2.95      19.7  T
   5    -64.6252799 -0.683849E-08  0.541E-04    2.95      31.3  T
     SCC iter.                  ...        0 min,  0.011 sec
     gradient                   ...        0 min,  0.059 sec
 * total energy  :   -63.6816692 Eh     change       -0.2822449E-04 Eh
   gradient norm :     0.0009754 Eh/α   predicted    -0.1256395E-04 ( -55.49%)
   displ. norm   :     0.1862274 α      lambda       -0.1939948E-04
   maximum displ.:     0.1213373 α      in ANC's #2, #1, #3, ...

........................................................................
.............................. CYCLE   29 ..............................
........................................................................

 iter      E             dE          RMSdq      gap      omega  full diag
   1    -64.6249371 -0.646249E+02  0.609E-02    2.95       0.0  T
   2    -64.6249373 -0.179019E-06  0.357E-02    2.95       1.0  T
   3    -64.6249371  0.140388E-06  0.232E-03    2.95       7.3  T
   4    -64.6249374 -0.232063E-06  0.783E-04    2.95      21.6  T
   5    -64.6249374 -0.317073E-08  0.463E-04    2.95      36.5  T
     SCC iter.                  ...        0 min,  0.011 sec
     gradient                   ...        0 min,  0.020 sec
 * total energy  :   -63.6816931 Eh     change       -0.2389781E-04 Eh
   gradient norm :     0.0017854 Eh/α   predicted    -0.9850828E-05 ( -58.78%)
   displ. norm   :     0.2210392 α      lambda       -0.2017329E-04
   maximum displ.:     0.1408796 α      in ANC's #2, #1, #3, ...

........................................................................
.............................. CYCLE   30 ..............................
........................................................................

 iter      E             dE          RMSdq      gap      omega  full diag
   1    -64.6247448 -0.646247E+02  0.732E-02    2.94       0.0  T
   2    -64.6247451 -0.259124E-06  0.429E-02    2.94       1.0  T
   3    -64.6247447  0.353109E-06  0.330E-03    2.94       5.1  T
   4    -64.6247452 -0.499631E-06  0.903E-04    2.94      18.7  T
   5    -64.6247452 -0.303294E-08  0.513E-04    2.94      32.9  T
     SCC iter.                  ...        0 min,  0.011 sec
     gradient                   ...        0 min,  0.020 sec
 * total energy  :   -63.6817169 Eh     change       -0.2381172E-04 Eh
   gradient norm :     0.0016323 Eh/α   predicted    -0.1030652E-04 ( -56.72%)
   displ. norm   :     0.2356477 α      lambda       -0.1617685E-04
   maximum displ.:     0.1487152 α      in ANC's #2, #3, #1, ...

........................................................................
.............................. CYCLE   31 ..............................
........................................................................

 iter      E             dE          RMSdq      gap      omega  full diag
   1    -64.6245181 -0.646245E+02  0.798E-02    2.94       0.0  T
   2    -64.6245185 -0.354491E-06  0.468E-02    2.94       1.0  T
   3    -64.6245179  0.563269E-06  0.412E-03    2.94       4.1  T
   4    -64.6245186 -0.749833E-06  0.103E-03    2.94      16.4  T
   5    -64.6245186 -0.746854E-08  0.625E-04    2.94      27.1  T
   6    -64.6245187 -0.337570E-08  0.371E-04    2.94      45.5  T
     SCC iter.                  ...        0 min,  0.013 sec
     gradient                   ...        0 min,  0.048 sec
 * total energy  :   -63.6817321 Eh     change       -0.1523662E-04 Eh
   gradient norm :     0.0008933 Eh/α   predicted    -0.8288517E-05 ( -45.60%)
   displ. norm   :     0.1049890 α      lambda       -0.5202084E-05
   maximum displ.:     0.0652649 α      in ANC's #2, #3, #1, ...

........................................................................
.............................. CYCLE   32 ..............................
........................................................................

 iter      E             dE          RMSdq      gap      omega  full diag
   1    -64.6247762 -0.646248E+02  0.380E-02    2.94       0.0  T
   2    -64.6247763 -0.109266E-06  0.223E-02    2.94       1.0  T
   3    -64.6247762  0.172274E-06  0.229E-03    2.94       7.4  T
   4    -64.6247764 -0.226729E-06  0.622E-04    2.94      27.2  T
   5    -64.6247764 -0.298182E-08  0.407E-04    2.94      41.5  T
     SCC iter.                  ...        0 min,  0.011 sec
     gradient                   ...        0 min,  0.020 sec
 * total energy  :   -63.6817359 Eh     change       -0.3781867E-05 Eh
   gradient norm :     0.0004609 Eh/α   predicted    -0.2615835E-05 ( -30.83%)
   displ. norm   :     0.0239979 α      lambda       -0.1643399E-05
   maximum displ.:     0.0162278 α      in ANC's #3, #2, #7, ...

   *** GEOMETRY OPTIMIZATION CONVERGED AFTER 32 ITERATIONS ***

------------------------------------------------------------------------
 total energy gain   :        -0.0104542 Eh       -6.5601 kcal/mol
 total RMSD          :         0.6996577 a0        0.3702 Å
 total power (kW/mol):        -0.8577356 (step)  -15.4025 (real)
------------------------------------------------------------------------

 ANCopt (total)                0 d,  0 h,  0 min,  1.782 sec
 optimizer setup                ...        0 min,  0.000 sec (  0.004%)
 model hessian                  ...        0 min,  0.011 sec (  0.616%)
 ANC generation                 ...        0 min,  0.002 sec (  0.119%)
 coordinate transformation      ...        0 min,  0.000 sec (  0.010%)
 single point calculation       ...        0 min,  1.760 sec ( 98.768%)
 optimization log               ...        0 min,  0.004 sec (  0.250%)
 hessian update                 ...        0 min,  0.000 sec (  0.018%)
 rational function              ...        0 min,  0.002 sec (  0.108%)

================
 final structure:
================
35
 xtb: 6.7.1 (edcfbbe)
O            2.45714248974172       -2.12818192749566        0.86148650342335
C            1.97410329552887       -1.09876074896701        0.45168366906384
N            0.64441825872760       -0.84386085952760        0.29866970622595
C           -0.45200142889378       -1.66783113197918        0.57654998483495
C           -0.30131925952363       -2.99123362300622        0.97647956965551
C           -1.41395664485182       -3.78277520031048        1.19353835293455
C           -2.68639832057602       -3.27191561613383        1.00242891800853
C           -2.84162135351416       -1.95758339739602        0.60217746158396
C           -1.73933623355284       -1.13650043154124        0.39703237889631
C           -1.95208689912309        0.26610484351673       -0.01119708113097
C           -1.42182881851127        1.32333682221840        0.72809287102728
C           -1.63489134571906        2.63447425037846        0.34361273257168
C           -2.38384465915648        2.89786914705861       -0.79245314179187
Cl          -2.64538318874321        4.53532911087485       -1.28388847016090
C           -2.92933834485990        1.86241573224241       -1.53586306139147
C           -2.71390702613504        0.55578522965815       -1.14078267240455
C            2.81022231627959        0.07166181213353        0.02038549714318
C            2.64902994303142        0.65161937805728       -1.23354339459443
C            3.48730927303773        1.68370739555229       -1.62546625486181
C            4.46980827319204        2.09775790589413       -0.73990588100698
N            4.62517242607529        1.56927891310241        0.46071322072566
C            3.82640429510232        0.59155366811754        0.83072675957325
Cl           4.06156797613990       -0.01391014042867        2.41557385621959
H            0.39275683204279        0.07840231335768       -0.03509824183292
H            0.68931463209166       -3.39018065809797        1.11475635802587
H           -1.28224978902244       -4.80654033014386        1.50881096178230
H           -3.55457804381629       -3.89178544481310        1.16642476740768
H           -3.82997272065803       -1.54410985545080        0.46337810794580
H           -0.86323094054636        1.11959579901495        1.63078708590189
H           -1.22765353379366        3.44764199834438        0.92354716630141
H           -3.51639623845778        2.08024149922118       -2.41422239108410
H           -3.13152842124627       -0.25504281303519       -1.71887042468573
H            1.88623315856893        0.28023293310155       -1.90423402816220
H            3.38354983084498        2.14576410460404       -2.59373507413798
H            5.16449021029830        2.88733932187927       -0.98999581200413

 Bond Distances (Angstroems)
 ---------------------------
O1-C2=1.2087         C2-O1=1.2087         C2-N3=1.3625         C2-C17=1.5017        N3-C2=1.3625         N3-C4=1.3994         
N3-H24=1.0126        C4-N3=1.3994         C4-C5=1.3907         C4-C9=1.4042         C5-C4=1.3907         C5-C6=1.3826         
C5-H25=1.0769        C6-C5=1.3826         C6-C7=1.3844         C6-H26=1.0793        C7-C6=1.3844         C7-C8=1.3827         
C7-H27=1.0793        C8-C7=1.3827         C8-C9=1.3897         C8-H28=1.0803        C9-C4=1.4042         C9-C8=1.3897         
C9-C10=1.4762        C10-C9=1.4762        C10-C11=1.3948       C10-C16=1.3929       C11-C10=1.3948       C11-C12=1.3829       
C11-H29=1.0809       C12-C11=1.3829       C12-C13=1.3860       C12-H30=1.0786       C13-C12=1.3860       C13-Cl14=1.7295      
C13-C15=1.3865       Cl14-C13=1.7295      C15-C13=1.3865       C15-C16=1.3819       C15-H31=1.0787       C16-C10=1.3929       
C16-C15=1.3819       C16-H32=1.0798       C17-C2=1.5017        C17-C18=1.3909       C17-C22=1.3998       C18-C17=1.3909       
C18-C19=1.3862       C18-H33=1.0815       C19-C18=1.3862       C19-C20=1.3860       C19-H34=1.0779       C20-C19=1.3860       
C20-N21=1.3210       C20-H35=1.0810       N21-C20=1.3210       N21-C22=1.3156       C22-C17=1.3998       C22-N21=1.3156       
C22-Cl23=1.7128      Cl23-C22=1.7128      H24-N3=1.0126        H25-C5=1.0769        H26-C6=1.0793        H27-C7=1.0793        
H28-C8=1.0803        H29-C11=1.0809       H30-C12=1.0786       H31-C15=1.0787       H32-C16=1.0798       H33-C18=1.0815       
H34-C19=1.0779       H35-C20=1.0810       
 C  H  Rav=1.0795 sigma=0.0014  Rmin=1.0769  Rmax=1.0815    11
 C  C  Rav=1.4000 sigma=0.0323  Rmin=1.3819  Rmax=1.5017    18
 N  H  Rav=1.0126 sigma=0.0000  Rmin=1.0126  Rmax=1.0126     1
 N  C  Rav=1.3496 sigma=0.0340  Rmin=1.3156  Rmax=1.3994     4
 O  C  Rav=1.2087 sigma=0.0000  Rmin=1.2087  Rmax=1.2087     1
 Cl C  Rav=1.7211 sigma=0.0084  Rmin=1.7128  Rmax=1.7295     2

 selected bond angles (degree)
 --------------------
N3-C2-O1=125.97                C17-C2-O1=122.59               C17-C2-N3=111.43               C4-N3-C2=129.21                
H24-N3-C2=116.74               H24-N3-C4=114.02               C5-C4-N3=122.18                C9-C4-N3=118.04                
C9-C4-C5=119.75                C6-C5-C4=120.18                H25-C5-C4=119.28               H25-C5-C6=120.53               
C7-C6-C5=120.45                H26-C6-C5=119.39               H26-C6-C7=120.17               C8-C7-C6=119.60                
H27-C7-C6=120.43               H27-C7-C8=119.98               C9-C8-C7=121.02                H28-C8-C7=120.25               
H28-C8-C9=118.72               C8-C9-C4=118.99                C10-C9-C4=121.80               C10-C9-C8=119.20               
C11-C10-C9=121.25              C16-C10-C9=120.04              C16-C10-C11=118.69             

 selected dihedral angles (degree)
 ---------------------------------
C4-N3-C2-O1=  0.64            C4-N3-C2-C17=179.71           H24-N3-C2-O1=178.48           H24-N3-C2-C17=357.55          
C5-C4-N3-C2=354.41            C5-C4-N3-H24=176.53           C9-C4-N3-C2=176.56            C9-C4-N3-H24=358.68           
C6-C5-C4-N3=182.35            C6-C5-C4-C9=  0.16            H25-C5-C4-N3=  2.37           H25-C5-C4-C9=180.18           
C7-C6-C5-C4=  0.66            C7-C6-C5-H25=180.64           H26-C6-C5-C4=180.33           H26-C6-C5-H25=  0.31          
C8-C7-C6-C5=359.48            C8-C7-C6-H26=179.81           H27-C7-C6-C5=179.64           H27-C7-C6-H26=  0.00          
C9-C8-C7-C6=359.55            C9-C8-C7-H27=179.39           H28-C8-C7-C6=180.86           H28-C8-C7-H27=  0.70          
C8-C9-C4-N3=176.79            C8-C9-C4-C5=358.89            C10-C9-C4-N3=357.18           C10-C9-C4-C5=179.28           
C4-C9-C8-C7=  1.26            C4-C9-C8-H28=179.97           C10-C9-C8-C7=180.88           C10-C9-C8-H28=359.59          
C11-C10-C9-C4=303.68          C11-C10-C9-C8=124.07          C16-C10-C9-C4=124.81          C16-C10-C9-C8=305.19          
           -------------------------------------------------
          |                Final Singlepoint                |
           -------------------------------------------------

          ...................................................
          :                      SETUP                      :
          :.................................................:
          :  # basis functions                 116          :
          :  # atomic orbitals                 114          :
          :  # shells                           60          :
          :  # electrons                       114          :
          :  max. iterations                   250          :
          :  Hamiltonian                  GFN2-xTB          :
          :  restarted?                      false          :
          :  GBSA solvation                  false          :
          :  PC potential                    false          :
          :  electronic temp.          300.0000000     K    :
          :  accuracy                    1.0000000          :
          :  -> integral cutoff          0.2500000E+02      :
          :  -> integral neglect         0.1000000E-07      :
          :  -> SCF convergence          0.1000000E-05 Eh   :
          :  -> wf. convergence          0.1000000E-03 e    :
          :  Broyden damping             0.4000000          :
          :  net charge                          0          :
          :  unpaired electrons                  0          :
          ...................................................

 iter      E             dE          RMSdq      gap      omega  full diag
   1    -64.6247764 -0.646248E+02  0.266E-04    2.94       0.0  T
   2    -64.6247764 -0.412598E-09  0.224E-04    2.94      75.6  T
   3    -64.6247764 -0.279144E-09  0.192E-04    2.94      88.2  T

   *** convergence criteria satisfied after 3 iterations ***

         #    Occupation            Energy/Eh            Energy/eV
      -------------------------------------------------------------
         1        2.0000           -1.0654929             -28.9935
       ...           ...                  ...                  ...
        51        2.0000           -0.4273813             -11.6296
        52        2.0000           -0.4198855             -11.4257
        53        2.0000           -0.4168758             -11.3438
        54        2.0000           -0.4112314             -11.1902
        55        2.0000           -0.4059681             -11.0470
        56        2.0000           -0.3934530             -10.7064
        57        2.0000           -0.3917997             -10.6614 (HOMO)
        58                         -0.2836501              -7.7185 (LUMO)
        59                         -0.2711619              -7.3787
        60                         -0.2620838              -7.1317
        61                         -0.2537657              -6.9053
        62                         -0.2401119              -6.5338
       ...                                ...                  ...
       114                          0.6797790              18.4977
      -------------------------------------------------------------
                  HL-Gap            0.1081495 Eh            2.9429 eV
             Fermi-level           -0.3377249 Eh           -9.1900 eV

 SCC (total)                   0 d,  0 h,  0 min,  0.055 sec
 SCC setup                      ...        0 min,  0.000 sec (  0.464%)
 Dispersion                     ...        0 min,  0.000 sec (  0.422%)
 classical contributions        ...        0 min,  0.000 sec (  0.187%)
 integral evaluation            ...        0 min,  0.007 sec ( 13.343%)
 iterations                     ...        0 min,  0.007 sec ( 12.555%)
 molecular gradient             ...        0 min,  0.040 sec ( 72.688%)
 printout                       ...        0 min,  0.000 sec (  0.328%)

         :::::::::::::::::::::::::::::::::::::::::::::::::::::
         ::                     SUMMARY                     ::
         :::::::::::::::::::::::::::::::::::::::::::::::::::::
         :: total energy             -63.681735917586 Eh    ::
         :: gradient norm              0.000460831964 Eh/a0 ::
         :: HOMO-LUMO gap              2.942898874710 eV    ::
         ::.................................................::
         :: SCC energy               -64.624261905740 Eh    ::
         :: -> isotropic ES            0.051049186982 Eh    ::
         :: -> anisotropic ES         -0.000827482670 Eh    ::
         :: -> anisotropic XC          0.032034506038 Eh    ::
         :: -> dispersion             -0.043634864939 Eh    ::
         :: repulsion energy           0.942525988154 Eh    ::
         :: add. restraining           0.000000000000 Eh    ::
         :: total charge               0.000000000000 e     ::
         :::::::::::::::::::::::::::::::::::::::::::::::::::::

           -------------------------------------------------
          |                Property Printout                |
           -------------------------------------------------

    * Orbital Energies and Occupations

         #    Occupation            Energy/Eh            Energy/eV
      -------------------------------------------------------------
         1        2.0000           -1.0654929             -28.9935
       ...           ...                  ...                  ...
        45        2.0000           -0.4590448             -12.4912
        46        2.0000           -0.4566385             -12.4258
        47        2.0000           -0.4462799             -12.1439
        48        2.0000           -0.4359427             -11.8626
        49        2.0000           -0.4351563             -11.8412
        50        2.0000           -0.4278985             -11.6437
        51        2.0000           -0.4273813             -11.6296
        52        2.0000           -0.4198855             -11.4257
        53        2.0000           -0.4168758             -11.3438
        54        2.0000           -0.4112314             -11.1902
        55        2.0000           -0.4059681             -11.0470
        56        2.0000           -0.3934530             -10.7064
        57        2.0000           -0.3917997             -10.6614 (HOMO)
        58                         -0.2836501              -7.7185 (LUMO)
        59                         -0.2711619              -7.3787
        60                         -0.2620838              -7.1317
        61                         -0.2537657              -6.9053
        62                         -0.2401119              -6.5338
        63                         -0.2260944              -6.1523
        64                         -0.2006434              -5.4598
        65                         -0.1461119              -3.9759
        66                         -0.1423744              -3.8742
        67                         -0.1359471              -3.6993
        68                         -0.1272854              -3.4636
       ...                                ...                  ...
       114                          0.6797790              18.4977
      -------------------------------------------------------------
                  HL-Gap            0.1081495 Eh            2.9429 eV
             Fermi-level           -0.3377249 Eh           -9.1900 eV

     #   Z          covCN         q      C6AA      α(0)
     1   8 O        0.858    -0.396    21.595     6.231
     2   6 C        2.752     0.282    22.231     7.721
     3   7 N        2.699    -0.161    24.490     7.350
     4   6 C        2.908     0.072    26.396     8.424
     5   6 C        2.919    -0.046    29.147     8.853
     6   6 C        2.921    -0.028    28.690     8.784
     7   6 C        2.917    -0.035    28.876     8.812
     8   6 C        2.926    -0.033    28.813     8.803
     9   6 C        2.980    -0.015    28.374     8.738
    10   6 C        2.975     0.006    27.889     8.663
    11   6 C        2.926    -0.040    28.994     8.830
    12   6 C        2.952    -0.041    29.016     8.835
    13   6 C        2.889     0.098    25.830     8.332
    14  17 Cl       0.965    -0.178   104.736    15.657
    15   6 C        2.952    -0.039    28.964     8.827
    16   6 C        2.927    -0.033    28.821     8.804
    17   6 C        3.007    -0.040    28.981     8.831
    18   6 C        2.933    -0.015    28.398     8.740
    19   6 C        2.911    -0.042    29.039     8.836
    20   6 C        2.914     0.062    26.603     8.458
    21   7 N        1.906    -0.206    26.310     7.605
    22   6 C        2.881     0.186    24.029     8.036
    23  17 Cl       0.997    -0.115   102.743    15.507
    24   1 H        0.860     0.181     1.211     1.724
    25   1 H        0.926     0.080     1.980     2.200
    26   1 H        0.926     0.043     2.408     2.427
    27   1 H        0.926     0.038     2.473     2.459
    28   1 H        0.926     0.037     2.488     2.467
    29   1 H        0.926     0.047     2.364     2.404
    30   1 H        0.926     0.057     2.232     2.336
    31   1 H        0.926     0.059     2.216     2.328
    32   1 H        0.926     0.050     2.323     2.383
    33   1 H        0.925     0.048     2.345     2.395
    34   1 H        0.926     0.055     2.259     2.350
    35   1 H        0.926     0.063     2.160     2.298

 Mol. C6AA /au·bohr⁶  :      21738.826499
 Mol. C8AA /au·bohr⁸  :     593387.904946
 Mol. α(0) /au        :        235.447877


Wiberg/Mayer (AO) data.
largest (>0.10) Wiberg bond orders for each atom

 ---------------------------------------------------------------------------
     #   Z sym  total        # sym  WBO       # sym  WBO       # sym  WBO
 ---------------------------------------------------------------------------
     1   8 O    2.052 --     2 C    1.708     3 N    0.176
     2   6 C    3.955 --     1 O    1.708     3 N    1.199    17 C    0.963
     3   7 N    3.504 --     2 C    1.199     4 C    1.071    24 H    0.920
                             1 O    0.176
     4   6 C    3.957 --     5 C    1.380     9 C    1.323     3 N    1.071
     5   6 C    3.984 --     6 C    1.447     4 C    1.380    25 H    0.958
                             8 C    0.104
     6   6 C    3.988 --     5 C    1.447     7 C    1.430    26 H    0.970
                             9 C    0.102
     7   6 C    3.990 --     8 C    1.439     6 C    1.430    27 H    0.970
     8   6 C    3.989 --     7 C    1.439     9 C    1.408    28 H    0.969
                             5 C    0.104
     9   6 C    3.985 --     8 C    1.408     4 C    1.323    10 C    1.033
                             6 C    0.102
    10   6 C    3.989 --    16 C    1.388    11 C    1.384     9 C    1.033
    11   6 C    3.990 --    12 C    1.446    10 C    1.384    29 H    0.967
                            15 C    0.105
    12   6 C    3.988 --    11 C    1.446    13 C    1.401    30 H    0.967
                            16 C    0.106
    13   6 C    3.913 --    12 C    1.401    15 C    1.398    14 Cl   0.974
    14  17 Cl   1.108 --    13 C    0.974
    15   6 C    3.988 --    16 C    1.451    13 C    1.398    31 H    0.967
                            11 C    0.105
    16   6 C    3.989 --    15 C    1.451    10 C    1.388    32 H    0.968
                            12 C    0.106
    17   6 C    3.984 --    18 C    1.416    22 C    1.334     2 C    0.963
                            20 C    0.111
    18   6 C    3.989 --    19 C    1.435    17 C    1.416    33 H    0.966
    19   6 C    3.990 --    18 C    1.435    20 C    1.425    34 H    0.968
    20   6 C    3.974 --    21 N    1.425    19 C    1.425    35 H    0.961
                            17 C    0.111
    21   7 N    3.082 --    20 C    1.425    22 C    1.425
    22   6 C    3.936 --    21 N    1.425    17 C    1.334    23 Cl   1.014
    23  17 Cl   1.188 --    22 C    1.014
    24   1 H    0.967 --     3 N    0.920
    25   1 H    0.993 --     5 C    0.958
    26   1 H    0.997 --     6 C    0.970
    27   1 H    0.998 --     7 C    0.970
    28   1 H    0.998 --     8 C    0.969
    29   1 H    0.998 --    11 C    0.967
    30   1 H    0.996 --    12 C    0.967
    31   1 H    0.996 --    15 C    0.967
    32   1 H    0.998 --    16 C    0.968
    33   1 H    0.998 --    18 C    0.966
    34   1 H    0.995 --    19 C    0.968
    35   1 H    0.995 --    20 C    0.961
 ---------------------------------------------------------------------------

Topologies differ in total number of bonds
Writing topology from bond orders to xtbtopo.mol

molecular dipole:
                 x           y           z       tot (Debye)
 q only:       -1.017       0.101      -0.978
   full:       -1.324       0.449      -1.269       4.798
molecular quadrupole (traceless):
                xx          xy          yy          xz          yz          zz
 q only:       -2.660      19.385      -4.158     -13.577       2.616       6.818
  q+dip:       -5.834      16.187      -0.559     -11.669      -0.513       6.393
   full:       -6.556      14.259      -1.837     -14.650       0.811       8.393

           -------------------------------------------------
          |                Geometry Summary                 |
           -------------------------------------------------

      molecular mass/u    :      343.2072217
   center of mass at/Å    :        0.3447350       0.3475689       0.1812102
  moments of inertia/u·Å² :        0.2078805E+04   0.3071466E+04   0.4685143E+04
rotational constants/cm⁻¹ :        0.8109289E-02   0.5488465E-02   0.3598104E-02

 * 35 selected distances

     #   Z          #   Z                                           value/Å
     1   8 O        2   6 C                                       1.2087074
     2   6 C        3   7 N                                       1.3625160
     3   7 N        4   6 C                                       1.3993859
     4   6 C        5   6 C                                       1.3906989
     5   6 C        6   6 C                                       1.3826116
     6   6 C        7   6 C                                       1.3844163
     7   6 C        8   6 C                                       1.3826659
     4   6 C        9   6 C                                       1.4041973
     8   6 C        9   6 C                                       1.3897103
    10   6 C       11   6 C                                       1.3947986
    11   6 C       12   6 C                                       1.3828602
    12   6 C       13   6 C                                       1.3859848
    13   6 C       14  17 Cl                                      1.7295048 (max)
    13   6 C       15   6 C                                       1.3865013
    10   6 C       16   6 C                                       1.3929281
    15   6 C       16   6 C                                       1.3819489
    17   6 C       18   6 C                                       1.3909248
    18   6 C       19   6 C                                       1.3861897
    19   6 C       20   6 C                                       1.3859869
    20   6 C       21   7 N                                       1.3209522
    17   6 C       22   6 C                                       1.3998452
    21   7 N       22   6 C                                       1.3156320
    22   6 C       23  17 Cl                                      1.7127841
     3   7 N       24   1 H                                       1.0125730 (min)
     5   6 C       25   1 H                                       1.0768635
     6   6 C       26   1 H                                       1.0792770
     7   6 C       27   1 H                                       1.0792912
     8   6 C       28   1 H                                       1.0803075
    11   6 C       29   1 H                                       1.0809251
    12   6 C       30   1 H                                       1.0786142
    15   6 C       31   1 H                                       1.0787031
    16   6 C       32   1 H                                       1.0798312
    18   6 C       33   1 H                                       1.0814865
    19   6 C       34   1 H                                       1.0778716
    20   6 C       35   1 H                                       1.0810028

 * 6 distinct bonds (by element types)

   Z      Z             #   av. dist./Å        max./Å        min./Å
   1 H    6 C          11     1.0794703     1.0814865     1.0768635
   6 C    6 C          16     1.3888918     1.4041973     1.3819489
   1 H    7 N           1     1.0125730     1.0125730     1.0125730
   6 C    7 N           4     1.3496215     1.3993859     1.3156320
   6 C    8 O           1     1.2087074     1.2087074     1.2087074
   6 C   17 Cl          2     1.7211444     1.7295048     1.7127841


optimized geometry written to: xtbopt.xyz


           -------------------------------------------------
          | TOTAL ENERGY              -63.681735917586 Eh   |
          | GRADIENT NORM               0.000460831964 Eh/α |
          | HOMO-LUMO GAP               2.942898874710 eV   |
           -------------------------------------------------

------------------------------------------------------------------------
 * finished run on 2025/05/15 at 16:14:22.394     
------------------------------------------------------------------------
 total:
 * wall-time:     0 d,  0 h,  0 min,  1.918 sec
 *  cpu-time:     0 d,  0 h,  0 min,  1.483 sec
 * ratio c/w:     0.773 speedup
 SCF:
 * wall-time:     0 d,  0 h,  0 min,  0.064 sec
 *  cpu-time:     0 d,  0 h,  0 min,  0.063 sec
 * ratio c/w:     0.996 speedup
 ANC optimizer:
 * wall-time:     0 d,  0 h,  0 min,  1.840 sec
 *  cpu-time:     0 d,  0 h,  0 min,  1.408 sec
 * ratio c/w:     0.765 speedup



----- Single-point -----
      -----------------------------------------------------------      
     |                   =====================                   |     
     |                           x T B                           |     
     |                   =====================                   |     
     |                         S. Grimme                         |     
     |          Mulliken Center for Theoretical Chemistry        |     
     |                    University of Bonn                     |     
      -----------------------------------------------------------      

   * xtb version 6.7.1 (edcfbbe) compiled by 'conda@3ef47c1a292c' on 2024-11-25

   xtb is free software: you can redistribute it and/or modify it under
   the terms of the GNU Lesser General Public License as published by
   the Free Software Foundation, either version 3 of the License, or
   (at your option) any later version.
   
   xtb is distributed in the hope that it will be useful,
   but WITHOUT ANY WARRANTY; without even the implied warranty of
   MERCHANTABILITY or FITNESS FOR A PARTICULAR PURPOSE.  See the
   GNU Lesser General Public License for more details.
   
   Cite this work as:
   * C. Bannwarth, E. Caldeweyher, S. Ehlert, A. Hansen, P. Pracht,
     J. Seibert, S. Spicher, S. Grimme, WIREs Comput. Mol. Sci., 2020, 11,
     e01493. DOI: 10.1002/wcms.1493
   
   for GFN2-xTB:
   * C. Bannwarth, S. Ehlert and S. Grimme., J. Chem. Theory Comput., 2019,
     15, 1652-1671. DOI: 10.1021/acs.jctc.8b01176
   for GFN1-xTB:
   * S. Grimme, C. Bannwarth, P. Shushkov, J. Chem. Theory Comput., 2017,
     13, 1989-2009. DOI: 10.1021/acs.jctc.7b00118
   for GFN0-xTB:
   * P. Pracht, E. Caldeweyher, S. Ehlert, S. Grimme, ChemRxiv, 2019, preprint.
     DOI: 10.26434/chemrxiv.8326202.v1
   for GFN-FF:
   * S. Spicher and S. Grimme, Angew. Chem. Int. Ed., 2020, 59, 15665-15673.
     DOI: 10.1002/anie.202004239
   
   for ALPB and GBSA implicit solvation:
   * S. Ehlert, M. Stahn, S. Spicher, S. Grimme, J. Chem. Theory Comput.,
     2021, 17, 4250-4261. DOI: 10.1021/acs.jctc.1c00471
   
   for ddCOSMO and CPCM-X implicit solvation:
   * M. Stahn, S. Ehlert, S. Grimme, J. Phys. Chem. A,
     2023, XX, XXXX-XXXX. DOI: 10.1021/acs.jpca.3c04382
   
   for DFT-D4:
   * E. Caldeweyher, C. Bannwarth and S. Grimme, J. Chem. Phys., 2017,
     147, 034112. DOI: 10.1063/1.4993215
   * E. Caldeweyher, S. Ehlert, A. Hansen, H. Neugebauer, S. Spicher,
     C. Bannwarth and S. Grimme, J. Chem. Phys., 2019, 150, 154122.
     DOI: 10.1063/1.5090222
   * E. Caldeweyher, J.-M. Mewes, S. Ehlert and S. Grimme, Phys. Chem. Chem. Phys.
     2020, 22, 8499-8512. DOI: 10.1039/D0CP00502A
   
   for sTDA-xTB:
   * S. Grimme and C. Bannwarth, J. Chem. Phys., 2016, 145, 054103.
     DOI: 10.1063/1.4959605
   
   in the mass-spec context:
   * V. Asgeirsson, C. Bauer and S. Grimme, Chem. Sci., 2017, 8, 4879.
     DOI: 10.1039/c7sc00601b
   * J. Koopman and S. Grimme, ACS Omega 2019, 4, 12, 15120-15133.
     DOI: 10.1021/acsomega.9b02011
   
   for metadynamics refer to:
   * S. Grimme, J. Chem. Theory Comput., 2019, 155, 2847-2862
     DOI: 10.1021/acs.jctc.9b00143
   
   for SPH calculations refer to:
   * S. Spicher and S. Grimme, J. Chem. Theory Comput., 2021, 17, 1701-1714
     DOI: 10.1021/acs.jctc.0c01306
   
   for ONIOM refer to:
   * C. Plett, A. Katbashev, S. Ehlert, S. Grimme, M. Bursch,
     Phys. Chem. Chem. Phys., 2023, 25, 17860-17868. DOI: 10.1039/D3CP02178E
   
   for DIPRO refer to:
[...]
     e01493. DOI: 10.1002/wcms.1493
   
   for GFN2-xTB:
   * C. Bannwarth, S. Ehlert and S. Grimme., J. Chem. Theory Comput., 2019,
     15, 1652-1671. DOI: 10.1021/acs.jctc.8b01176
   for GFN1-xTB:
   * S. Grimme, C. Bannwarth, P. Shushkov, J. Chem. Theory Comput., 2017,
     13, 1989-2009. DOI: 10.1021/acs.jctc.7b00118
   for GFN0-xTB:
   * P. Pracht, E. Caldeweyher, S. Ehlert, S. Grimme, ChemRxiv, 2019, preprint.
     DOI: 10.26434/chemrxiv.8326202.v1
   for GFN-FF:
   * S. Spicher and S. Grimme, Angew. Chem. Int. Ed., 2020, 59, 15665-15673.
     DOI: 10.1002/anie.202004239
   
   for ALPB and GBSA implicit solvation:
   * S. Ehlert, M. Stahn, S. Spicher, S. Grimme, J. Chem. Theory Comput.,
     2021, 17, 4250-4261. DOI: 10.1021/acs.jctc.1c00471
   
   for ddCOSMO and CPCM-X implicit solvation:
   * M. Stahn, S. Ehlert, S. Grimme, J. Phys. Chem. A,
     2023, XX, XXXX-XXXX. DOI: 10.1021/acs.jpca.3c04382
   
   for DFT-D4:
   * E. Caldeweyher, C. Bannwarth and S. Grimme, J. Chem. Phys., 2017,
     147, 034112. DOI: 10.1063/1.4993215
   * E. Caldeweyher, S. Ehlert, A. Hansen, H. Neugebauer, S. Spicher,
     C. Bannwarth and S. Grimme, J. Chem. Phys., 2019, 150, 154122.
     DOI: 10.1063/1.5090222
   * E. Caldeweyher, J.-M. Mewes, S. Ehlert and S. Grimme, Phys. Chem. Chem. Phys.
     2020, 22, 8499-8512. DOI: 10.1039/D0CP00502A
   
   for sTDA-xTB:
   * S. Grimme and C. Bannwarth, J. Chem. Phys., 2016, 145, 054103.
     DOI: 10.1063/1.4959605
   
   in the mass-spec context:
   * V. Asgeirsson, C. Bauer and S. Grimme, Chem. Sci., 2017, 8, 4879.
     DOI: 10.1039/c7sc00601b
   * J. Koopman and S. Grimme, ACS Omega 2019, 4, 12, 15120-15133.
     DOI: 10.1021/acsomega.9b02011
   
   for metadynamics refer to:
   * S. Grimme, J. Chem. Theory Comput., 2019, 155, 2847-2862
     DOI: 10.1021/acs.jctc.9b00143
   
   for SPH calculations refer to:
   * S. Spicher and S. Grimme, J. Chem. Theory Comput., 2021, 17, 1701-1714
     DOI: 10.1021/acs.jctc.0c01306
   
   for ONIOM refer to:
   * C. Plett, A. Katbashev, S. Ehlert, S. Grimme, M. Bursch,
     Phys. Chem. Chem. Phys., 2023, 25, 17860-17868. DOI: 10.1039/D3CP02178E
   
   for DIPRO refer to:
   * J. Kohn, N. Gildemeister, S. Grimme, D. Fazzi, A. Hansen,
     J. Chem. Phys., 2023, just accepted.
   
   for PTB refer to:
   * S. Grimme, M. Mueller, A. Hansen, J. Chem. Phys., 2023, 158, 124111.
     DOI: 10.1063/5.0137838
   
   with help from (in alphabetical order)
   P. Atkinson, C. Bannwarth, F. Bohle, G. Brandenburg, E. Caldeweyher
   M. Checinski, S. Dohm, S. Ehlert, S. Ehrlich, I. Gerasimov, C. Hölzer
   A. Katbashev, J. Kohn, J. Koopman, C. Lavigne, S. Lehtola, F. März, M. Müller,
   F. Musil, H. Neugebauer, J. Pisarek, C. Plett, P. Pracht, F. Pultar,
   J. Seibert, P. Shushkov, S. Spicher, M. Stahn, M. Steiner, T. Strunk,
   J. Stückrath, T. Rose, and J. Unsleber
   
 * started run on 2025/05/15 at 16:14:24.401     
   ID    Z sym.   atoms
    1    8 O      1
    2    6 C      2, 4-13, 15-20, 22
    3    7 N      3, 21
    4   17 Cl     14, 23
    5    1 H      24-35

           -------------------------------------------------
          |                Calculation Setup                |
           -------------------------------------------------

          program call               : xtb /rds/general/user/hgt20/home/callum/QDESCP/Boscalid_rdkit_conf_2/Boscalid_rdkit_conf_2.xyz --acc 1 --gfn 2 --chrg 0 --uhf 2 --etemp 300 --input /rds/general/user/hgt20/home/callum/QDESCP/Boscalid_rdkit_conf_2/Boscalid_rdkit_conf_2_xtb.inp -P 1
          hostname                   : login-c
          coordinate file            : /rds/general/user/hgt20/home/callum/QDESCP/Boscalid_rdkit_conf_2/Boscalid_rdkit_conf_2.xyz
          omp threads                :                     1


           -------------------------------------------------
          |                 G F N 2 - x T B                 |
           -------------------------------------------------

        Reference                      10.1021/acs.jctc.8b01176
      * Hamiltonian:
        H0-scaling (s, p, d)           1.850000    2.230000    2.230000
        zeta-weighting                 0.500000
      * Dispersion:
        s8                             2.700000
        a1                             0.520000
        a2                             5.000000
        s9                             5.000000
      * Repulsion:
        kExp                           1.500000    1.000000
        rExp                           1.000000
      * Coulomb:
        alpha                          2.000000
        third order                    shell-resolved
        anisotropic                    true
        a3                             3.000000
        a5                             4.000000
        cn-shift                       1.200000
        cn-exp                         4.000000
        max-rad                        5.000000


          ...................................................
          :                      SETUP                      :
          :.................................................:
          :  # basis functions                 116          :
          :  # atomic orbitals                 114          :
          :  # shells                           60          :
          :  # electrons                       114          :
          :  max. iterations                   250          :
          :  Hamiltonian                  GFN2-xTB          :
          :  restarted?                      false          :
          :  GBSA solvation                  false          :
          :  PC potential                    false          :
          :  electronic temp.          300.0000000     K    :
          :  accuracy                    1.0000000          :
          :  -> integral cutoff          0.2500000E+02      :
          :  -> integral neglect         0.1000000E-07      :
          :  -> SCF convergence          0.1000000E-05 Eh   :
          :  -> wf. convergence          0.1000000E-03 e    :
          :  Broyden damping             0.4000000          :
          :  net charge                          0          :
          :  unpaired electrons                  2          :
          ...................................................

 iter      E             dE          RMSdq      gap      omega  full diag
   1    -64.3707337 -0.643707E+02  0.456E+00    0.30       0.0  T
   2    -64.3063405  0.643931E-01  0.294E+00    0.35       1.0  T
   3    -64.2074842  0.988563E-01  0.273E+00    0.47       1.0  T
   4    -64.3572490 -0.149765E+00  0.163E+00    0.24       1.0  T
   5    -64.2891368  0.681122E-01  0.183E+00    0.32       1.0  T
   6    -64.4086428 -0.119506E+00  0.113E+00    0.23       1.0  T
   7    -64.4994169 -0.907741E-01  0.399E-01    0.21       1.0  T
   8    -64.4547661  0.446508E-01  0.810E-01    0.23       1.0  T
   9    -64.5012956 -0.465295E-01  0.319E-01    0.24       1.0  T
  10    -64.4981186  0.317699E-02  0.328E-01    0.23       1.0  T
  11    -64.5071544 -0.903574E-02  0.966E-02    0.22       1.0  T
  12    -64.5073977 -0.243299E-03  0.677E-02    0.23       1.0  T
  13    -64.5076423 -0.244645E-03  0.354E-02    0.23       1.0  T
  14    -64.5076372  0.515057E-05  0.292E-02    0.23       1.0  T
  15    -64.5076324  0.478842E-05  0.286E-02    0.23       1.0  T
  16    -64.5076527 -0.203374E-04  0.242E-02    0.23       1.0  T
  17    -64.5076789 -0.261770E-04  0.161E-02    0.23       1.0  T
  18    -64.5076971 -0.182359E-04  0.565E-03    0.23       3.0  T
  19    -64.5076995 -0.234602E-05  0.197E-03    0.23       8.6  T
  20    -64.5076990  0.466632E-06  0.264E-03    0.23       6.4  T
  21    -64.5076994 -0.374474E-06  0.167E-03    0.23      10.1  T
  22    -64.5076996 -0.186008E-06  0.597E-04    0.23      28.3  T
  23    -64.5076992  0.378332E-06  0.213E-03    0.23       7.9  T
  24    -64.5076995 -0.296167E-06  0.106E-03    0.23      15.9  T
  25    -64.5076996 -0.982496E-07  0.121E-04    0.23     139.8  T

   *** convergence criteria satisfied after 25 iterations ***

         #    Occupation            Energy/Eh            Energy/eV
      -------------------------------------------------------------
         1        2.0000           -1.0668946             -29.0317
       ...           ...                  ...                  ...
        52        2.0000           -0.4239899             -11.5374
        53        2.0000           -0.4136320             -11.2555
        54        2.0000           -0.4105435             -11.1715
        55        2.0000           -0.4091327             -11.1331
        56        1.6144           -0.3967617             -10.7964
        57        1.3856           -0.3958767             -10.7724
        58        0.9884           -0.2724797              -7.4145 (HOMO)
        59        0.0112           -0.2639977              -7.1837 (LUMO)
        60        0.0005           -0.2609849              -7.1018
        61        0.0000           -0.2531552              -6.8887
        62                         -0.2397426              -6.5237
        63                         -0.2294398              -6.2434
       ...                                ...                  ...
       114                          0.6822887              18.5660
      -------------------------------------------------------------
                  HL-Gap            0.0084820 Eh            0.2308 eV
             Fermi-level           -0.3322889 Eh           -9.0420 eV

 transition dipole moment (au) for excitation:          57          58
     X       Y       Z   
  -0.3087   0.4059  -0.0538  total (au/Debye):    0.513   1.303
 dE (eV)             :    3.358
 oscillator strength :  0.30583E-01

 SCC (total)                   0 d,  0 h,  0 min,  0.129 sec
 SCC setup                      ...        0 min,  0.000 sec (  0.250%)
 Dispersion                     ...        0 min,  0.000 sec (  0.279%)
 classical contributions        ...        0 min,  0.000 sec (  0.088%)
 integral evaluation            ...        0 min,  0.008 sec (  5.937%)
 iterations                     ...        0 min,  0.093 sec ( 71.754%)
 molecular gradient             ...        0 min,  0.020 sec ( 15.767%)
 printout                       ...        0 min,  0.008 sec (  5.919%)

         :::::::::::::::::::::::::::::::::::::::::::::::::::::
         ::                     SUMMARY                     ::
         :::::::::::::::::::::::::::::::::::::::::::::::::::::
         :: total energy             -63.564659120815 Eh    ::
         :: gradient norm              0.099127484150 Eh/a0 ::
         :: HOMO-LUMO gap              0.230807323480 eV    ::
         ::.................................................::
         :: SCC energy               -64.507185108969 Eh    ::
         :: -> isotropic ES            0.045111941866 Eh    ::
         :: -> anisotropic ES         -0.001208822770 Eh    ::
         :: -> anisotropic XC          0.027290847527 Eh    ::
         :: -> dispersion             -0.043630541451 Eh    ::
         :: repulsion energy           0.942525988154 Eh    ::
         :: add. restraining           0.000000000000 Eh    ::
         :: total charge               0.000000000000 e     ::
         :::::::::::::::::::::::::::::::::::::::::::::::::::::

           -------------------------------------------------
          |                Property Printout                |
           -------------------------------------------------

    * Orbital Energies and Occupations

         #    Occupation            Energy/Eh            Energy/eV
      -------------------------------------------------------------
         1        2.0000           -1.0668946             -29.0317
       ...           ...                  ...                  ...
        46        2.0000           -0.4512643             -12.2795
        47        2.0000           -0.4469439             -12.1620
        48        2.0000           -0.4396896             -11.9646
        49        2.0000           -0.4345853             -11.8257
        50        2.0000           -0.4292796             -11.6813
        51        2.0000           -0.4276349             -11.6365
        52        2.0000           -0.4239899             -11.5374
        53        2.0000           -0.4136320             -11.2555
        54        2.0000           -0.4105435             -11.1715
        55        2.0000           -0.4091327             -11.1331
        56        1.6144           -0.3967617             -10.7964
        57        1.3856           -0.3958767             -10.7724
        58        0.9884           -0.2724797              -7.4145 (HOMO)
        59        0.0112           -0.2639977              -7.1837 (LUMO)
        60        0.0005           -0.2609849              -7.1018
        61        0.0000           -0.2531552              -6.8887
        62                         -0.2397426              -6.5237
        63                         -0.2294398              -6.2434
        64                         -0.1985300              -5.4023
        65                         -0.1469193              -3.9979
        66                         -0.1396559              -3.8002
        67                         -0.1281280              -3.4865
        68                         -0.1243041              -3.3825
        69                         -0.0998498              -2.7171
       ...                                ...                  ...
       114                          0.6822887              18.5660
      -------------------------------------------------------------
                  HL-Gap            0.0084820 Eh            0.2308 eV
             Fermi-level           -0.3322889 Eh           -9.0420 eV

     #   Z          covCN         q      C6AA      α(0)
     1   8 O        0.858    -0.382    21.324     6.191
     2   6 C        2.752     0.258    22.653     7.794
     3   7 N        2.699    -0.141    24.058     7.285
     4   6 C        2.908     0.073    26.358     8.418
     5   6 C        2.919    -0.042    29.048     8.838
     6   6 C        2.921    -0.027    28.674     8.781
     7   6 C        2.917    -0.031    28.775     8.796
     8   6 C        2.926    -0.032    28.789     8.799
     9   6 C        2.980    -0.011    28.282     8.723
    10   6 C        2.975     0.001    28.000     8.680
    11   6 C        2.926    -0.040    29.004     8.832
    12   6 C        2.952    -0.041    29.007     8.834
    13   6 C        2.889     0.094    25.906     8.345
    14  17 Cl       0.965    -0.164   104.300    15.624
    15   6 C        2.952    -0.039    28.956     8.826
    16   6 C        2.927    -0.034    28.846     8.808
    17   6 C        3.007    -0.058    29.430     8.899
    18   6 C        2.933    -0.042    29.047     8.839
    19   6 C        2.911    -0.038    28.934     8.820
    20   6 C        2.914     0.023    27.487     8.597
    21   7 N        1.906    -0.160    25.262     7.452
    22   6 C        2.881     0.178    24.185     8.062
    23  17 Cl       0.997    -0.110   102.587    15.496
    24   1 H        0.860     0.189     1.164     1.690
    25   1 H        0.926     0.085     1.928     2.171
    26   1 H        0.926     0.046     2.376     2.410
    27   1 H        0.926     0.042     2.420     2.433
    28   1 H        0.926     0.042     2.425     2.435
    29   1 H        0.926     0.046     2.373     2.409
    30   1 H        0.926     0.057     2.230     2.335
    31   1 H        0.926     0.058     2.221     2.331
    32   1 H        0.926     0.048     2.342     2.393
    33   1 H        0.925     0.042     2.420     2.433
    34   1 H        0.926     0.049     2.337     2.390
    35   1 H        0.926     0.060     2.200     2.320

 Mol. C6AA /au·bohr⁶  :      21740.281799
 Mol. C8AA /au·bohr⁸  :     593612.857420
 Mol. α(0) /au        :        235.490469


Wiberg/Mayer (AO) data.
largest (>0.10) Wiberg bond orders for each atom

 ---------------------------------------------------------------------------
     #   Z sym  total        # sym  WBO       # sym  WBO       # sym  WBO
 ---------------------------------------------------------------------------
     1   8 O    1.980 --     2 C    1.601     3 N    0.103
     2   6 C    3.908 --     1 O    1.601     3 N    1.129    17 C    0.998
     3   7 N    3.437 --     4 C    1.132     2 C    1.129    24 H    0.917
                             1 O    0.103
     4   6 C    3.851 --     5 C    1.323     9 C    1.207     3 N    1.132
     5   6 C    3.948 --     6 C    1.492     4 C    1.323    25 H    0.947
                             8 C    0.104
     6   6 C    3.925 --     5 C    1.492     7 C    1.339    26 H    0.970
     7   6 C    3.862 --     8 C    1.442     6 C    1.339    27 H    0.968
     8   6 C    3.983 --     7 C    1.442     9 C    1.403    28 H    0.967
                             5 C    0.104
     9   6 C    3.884 --     8 C    1.403     4 C    1.207    10 C    1.066
    10   6 C    3.950 --    16 C    1.344    11 C    1.342     9 C    1.066
    11   6 C    3.969 --    12 C    1.469    10 C    1.342    29 H    0.967
    12   6 C    3.975 --    11 C    1.469    13 C    1.371    30 H    0.967
    13   6 C    3.838 --    15 C    1.371    12 C    1.371    14 Cl   0.978
    14  17 Cl   1.095 --    13 C    0.978
    15   6 C    3.972 --    16 C    1.473    13 C    1.371    31 H    0.966
    16   6 C    3.958 --    15 C    1.473    10 C    1.344    32 H    0.968
    17   6 C    3.859 --    18 C    1.285    22 C    1.273     2 C    0.998
    18   6 C    3.932 --    19 C    1.465    17 C    1.285    33 H    0.955
    19   6 C    3.951 --    18 C    1.465    20 C    1.360    34 H    0.968
    20   6 C    3.834 --    19 C    1.360    21 N    1.332    35 H    0.946
    21   7 N    3.076 --    22 C    1.443    20 C    1.332
    22   6 C    3.900 --    21 N    1.443    17 C    1.273    23 Cl   1.001
    23  17 Cl   1.184 --    22 C    1.001
    24   1 H    0.964 --     3 N    0.917
    25   1 H    0.986 --     5 C    0.947
    26   1 H    0.997 --     6 C    0.970
    27   1 H    0.995 --     7 C    0.968
    28   1 H    0.995 --     8 C    0.967
    29   1 H    0.998 --    11 C    0.967
    30   1 H    0.996 --    12 C    0.967
    31   1 H    0.996 --    15 C    0.966
    32   1 H    0.998 --    16 C    0.968
    33   1 H    0.988 --    18 C    0.955
    34   1 H    0.995 --    19 C    0.968
    35   1 H    0.978 --    20 C    0.946
 ---------------------------------------------------------------------------

Topologies differ in total number of bonds
Writing topology from bond orders to xtbtopo.mol

molecular dipole:
                 x           y           z       tot (Debye)
 q only:       -1.380      -0.109      -0.722
   full:       -1.621       0.249      -0.958       4.827
molecular quadrupole (traceless):
                xx          xy          yy          xz          yz          zz
 q only:       -3.754      18.314      -2.251     -11.430       2.436       6.005
  q+dip:       -6.074      16.454       1.519      -9.173      -0.462       4.554
   full:       -6.652      14.718       0.009     -11.781       0.692       6.642


           -------------------------------------------------
          | TOTAL ENERGY              -63.564659120815 Eh   |
          | GRADIENT NORM               0.099127484150 Eh/α |
          | HOMO-LUMO GAP               0.230807323480 eV   |
           -------------------------------------------------

------------------------------------------------------------------------
 * finished run on 2025/05/15 at 16:14:24.583     
------------------------------------------------------------------------
 total:
 * wall-time:     0 d,  0 h,  0 min,  0.181 sec
 *  cpu-time:     0 d,  0 h,  0 min,  0.101 sec
 * ratio c/w:     0.558 speedup
 SCF:
 * wall-time:     0 d,  0 h,  0 min,  0.129 sec
 *  cpu-time:     0 d,  0 h,  0 min,  0.090 sec
 * ratio c/w:     0.694 speedup


