38
 energy: -65.475660808977 gnorm: 0.000448176776 xtb: 6.7.1 (edcfbbe)
O            0.39304956160613       -1.45062304868024       -3.82542693817921
C            1.59574131870915       -1.54858775381299       -3.11536286242813
C            1.62725411463762       -0.58459852885561       -1.92470142422173
O            0.51105622775243       -0.90705137099715       -1.11071032088985
C            0.38320167663834       -0.06948781151540        0.00776969353947
C            1.61424008989275       -0.16816292460057        0.92651094843027
C            2.86267684578809        0.18306334667674        0.11580334744921
C            2.93618485516173       -0.70010717278638       -1.13579830552195
O            3.99603922270177       -0.31079360321991       -1.96494166279533
O            4.03786667512629       -0.01513492316542        0.86195056105803
O            1.52510679006263        0.72492032193272        2.00320396469743
O           -0.71404761191582       -0.47380299331933        0.75872979426799
C           -1.90946695596740        0.19473745393013        0.55831828093945
C           -2.37020978088451        0.46774698158925       -0.72409292362228
C           -3.57889810106252        1.10939300737737       -0.90974281963650
C           -4.33476683705550        1.48200239407409        0.18915128495888
C           -3.86864013497055        1.22097597723835        1.46300573124033
C           -2.64998201334856        0.58408922378661        1.67593458900561
C           -2.21352773436677        0.36822659413732        3.10981934202718
O           -0.92296143079769       -0.15230176244979        3.31553860721300
H           -0.32221960443785       -1.58803377609746       -3.19181786200957
H            2.40195164073187       -1.29108213792413       -3.80249347996054
H            1.74630676725290       -2.57072271640816       -2.74212873605384
H            1.52806480536063        0.44974025160827       -2.29016848933668
H            0.26702666549904        0.98292341943637       -0.32013143723450
H            1.69077168704437       -1.20900433178838        1.27976708805330
H            2.78970726695183        1.23981018036745       -0.19173973324858
H            3.06768822318095       -1.74448039405682       -0.80816699151933
H            4.77307074993178       -0.21102220262573       -1.39912725583995
H            3.89880356495420        0.39641397871875        1.72397790927756
H            0.70877085111649        0.54340775776757        2.50623975504036
H           -1.77178195779685        0.16125346511155       -1.56838578235824
H           -3.92939940310948        1.31285614533320       -1.90978657125409
H           -5.28258221150517        1.97966936611567        0.05361230207691
H           -4.45020731449457        1.52312081432270        2.32182697977630
H           -2.95936266869596       -0.27616278332438        3.60294804869809
H           -2.21892189287039        1.33423811770956        3.62575360583604
H           -0.85740394681774       -0.98712856159789        2.83476176252245
