29
 energy: -55.286263865476 gnorm: 0.000397144188 xtb: 6.7.1 (edcfbbe)
O           -1.30255085941757        2.92988290103735        0.08894240075651
C           -2.27022472797304        2.52364257044907       -0.84088254754766
C           -2.31238792764137        0.99830072485191       -0.98089976659510
C           -2.63667150379613        0.26713769845362        0.33661678365104
C           -1.28068364278305       -0.32923888965701        0.75094920071326
C           -0.62694800697920       -0.53747916903181       -0.63278081451948
N            0.80260410447819       -0.58525835126064       -0.51375087154828
C            1.77601110853372       -0.10301485045922       -1.30829279573269
N            2.94649766906294       -0.36896387886974       -0.78811360875945
C            2.64996285601183       -1.03834809055598        0.35596298984459
C            3.69062861411655       -1.53983562031293        1.28836898386739
N            4.93223586701339       -1.22339481149733        0.86552933934635
O            3.44725850493203       -2.15240976170045        2.30310664736918
N            1.35464725101588       -1.18051196434312        0.54566392065927
O           -1.01125806726904        0.56044512583165       -1.40492884784700
O           -1.44214324975575       -1.50136654618333        1.48252894945121
O           -3.58186641464047       -0.73401351737311        0.09180976023814
H           -0.44589084299123        2.61817672536010       -0.22826833254732
H           -3.23116244203008        2.88625612424561       -0.47440746443557
H           -2.07189183651914        2.96179061623349       -1.82764763990052
H           -3.05224991622655        0.70564747667865       -1.73470522514924
H           -3.00507954346786        0.96983647738868        1.09555171819547
H           -0.69880474916752        0.42171051576698        1.30458433737633
H           -0.99039769378553       -1.48461127619660       -1.07188822676353
H            1.58572849677470        0.41988224380178       -2.22153773265582
H            5.04905080315898       -0.71693621130013        0.00449757942169
H            5.73063971962201       -1.50655343778565        1.40730067474518
H           -0.56235292339419       -1.83349902005283        1.71390956550787
H           -3.44250064688251       -1.42737380351952        0.75288102285876
