----- Optimization -----
      -----------------------------------------------------------      
     |                   =====================                   |     
     |                           x T B                           |     
     |                   =====================                   |     
     |                         S. Grimme                         |     
     |          Mulliken Center for Theoretical Chemistry        |     
     |                    University of Bonn                     |     
      -----------------------------------------------------------      

   * xtb version 6.7.1 (edcfbbe) compiled by 'conda@3ef47c1a292c' on 2024-11-25

   xtb is free software: you can redistribute it and/or modify it under
   the terms of the GNU Lesser General Public License as published by
   the Free Software Foundation, either version 3 of the License, or
   (at your option) any later version.
   
   xtb is distributed in the hope that it will be useful,
   but WITHOUT ANY WARRANTY; without even the implied warranty of
   MERCHANTABILITY or FITNESS FOR A PARTICULAR PURPOSE.  See the
   GNU Lesser General Public License for more details.
   
   Cite this work as:
   * C. Bannwarth, E. Caldeweyher, S. Ehlert, A. Hansen, P. Pracht,
     J. Seibert, S. Spicher, S. Grimme, WIREs Comput. Mol. Sci., 2020, 11,
     e01493. DOI: 10.1002/wcms.1493
   
   for GFN2-xTB:
   * C. Bannwarth, S. Ehlert and S. Grimme., J. Chem. Theory Comput., 2019,
     15, 1652-1671. DOI: 10.1021/acs.jctc.8b01176
   for GFN1-xTB:
   * S. Grimme, C. Bannwarth, P. Shushkov, J. Chem. Theory Comput., 2017,
     13, 1989-2009. DOI: 10.1021/acs.jctc.7b00118
   for GFN0-xTB:
   * P. Pracht, E. Caldeweyher, S. Ehlert, S. Grimme, ChemRxiv, 2019, preprint.
     DOI: 10.26434/chemrxiv.8326202.v1
   for GFN-FF:
   * S. Spicher and S. Grimme, Angew. Chem. Int. Ed., 2020, 59, 15665-15673.
     DOI: 10.1002/anie.202004239
   
   for ALPB and GBSA implicit solvation:
   * S. Ehlert, M. Stahn, S. Spicher, S. Grimme, J. Chem. Theory Comput.,
     2021, 17, 4250-4261. DOI: 10.1021/acs.jctc.1c00471
   
   for ddCOSMO and CPCM-X implicit solvation:
   * M. Stahn, S. Ehlert, S. Grimme, J. Phys. Chem. A,
     2023, XX, XXXX-XXXX. DOI: 10.1021/acs.jpca.3c04382
   
   for DFT-D4:
   * E. Caldeweyher, C. Bannwarth and S. Grimme, J. Chem. Phys., 2017,
     147, 034112. DOI: 10.1063/1.4993215
   * E. Caldeweyher, S. Ehlert, A. Hansen, H. Neugebauer, S. Spicher,
     C. Bannwarth and S. Grimme, J. Chem. Phys., 2019, 150, 154122.
     DOI: 10.1063/1.5090222
   * E. Caldeweyher, J.-M. Mewes, S. Ehlert and S. Grimme, Phys. Chem. Chem. Phys.
     2020, 22, 8499-8512. DOI: 10.1039/D0CP00502A
   
   for sTDA-xTB:
   * S. Grimme and C. Bannwarth, J. Chem. Phys., 2016, 145, 054103.
     DOI: 10.1063/1.4959605
   
   in the mass-spec context:
   * V. Asgeirsson, C. Bauer and S. Grimme, Chem. Sci., 2017, 8, 4879.
     DOI: 10.1039/c7sc00601b
   * J. Koopman and S. Grimme, ACS Omega 2019, 4, 12, 15120-15133.
     DOI: 10.1021/acsomega.9b02011
   
   for metadynamics refer to:
   * S. Grimme, J. Chem. Theory Comput., 2019, 155, 2847-2862
     DOI: 10.1021/acs.jctc.9b00143
   
   for SPH calculations refer to:
   * S. Spicher and S. Grimme, J. Chem. Theory Comput., 2021, 17, 1701-1714
     DOI: 10.1021/acs.jctc.0c01306
   
   for ONIOM refer to:
   * C. Plett, A. Katbashev, S. Ehlert, S. Grimme, M. Bursch,
     Phys. Chem. Chem. Phys., 2023, 25, 17860-17868. DOI: 10.1039/D3CP02178E
   
   for DIPRO refer to:
   * J. Kohn, N. Gildemeister, S. Grimme, D. Fazzi, A. Hansen,
     J. Chem. Phys., 2023, just accepted.
   
   for PTB refer to:
   * S. Grimme, M. Mueller, A. Hansen, J. Chem. Phys., 2023, 158, 124111.
     DOI: 10.1063/5.0137838
   
   with help from (in alphabetical order)
   P. Atkinson, C. Bannwarth, F. Bohle, G. Brandenburg, E. Caldeweyher
   M. Checinski, S. Dohm, S. Ehlert, S. Ehrlich, I. Gerasimov, C. Hölzer
   A. Katbashev, J. Kohn, J. Koopman, C. Lavigne, S. Lehtola, F. März, M. Müller,
   F. Musil, H. Neugebauer, J. Pisarek, C. Plett, P. Pracht, F. Pultar,
   J. Seibert, P. Shushkov, S. Spicher, M. Stahn, M. Steiner, T. Strunk,
   J. Stückrath, T. Rose, and J. Unsleber
   
 * started run on 2025/05/15 at 16:35:28.719     
   ID    Z sym.   atoms
    1    6 C      1-4, 6-8, 11-16, 20, 21, 23-26, 28, 30, 31, 33
    2    7 N      5, 9, 10, 19, 22, 32
    3   16 S      17
    4    8 O      18, 27, 29, 34
    5    1 H      35-66

           -------------------------------------------------
          |                Calculation Setup                |
           -------------------------------------------------

          program call               : xtb /rds/general/user/hgt20/home/callum/QDESCP/Vardenafil_rdkit_conf_1/Vardenafil_rdkit_conf_1.xyz --opt normal --acc 1 --gfn 2 --chrg 0 --uhf 0 -P 1
          hostname                   : login-c
          coordinate file            : /rds/general/user/hgt20/home/callum/QDESCP/Vardenafil_rdkit_conf_1/Vardenafil_rdkit_conf_1.xyz
          omp threads                :                     1


           -------------------------------------------------
          |                 G F N 2 - x T B                 |
           -------------------------------------------------

        Reference                      10.1021/acs.jctc.8b01176
      * Hamiltonian:
        H0-scaling (s, p, d)           1.850000    2.230000    2.230000
        zeta-weighting                 0.500000
      * Dispersion:
        s8                             2.700000
        a1                             0.520000
        a2                             5.000000
        s9                             5.000000
      * Repulsion:
        kExp                           1.500000    1.000000
        rExp                           1.000000
      * Coulomb:
        alpha                          2.000000
        third order                    shell-resolved
        anisotropic                    true
        a3                             3.000000
        a5                             4.000000
        cn-shift                       1.200000
        cn-exp                         4.000000
        max-rad                        5.000000


          ...................................................
          :                      SETUP                      :
          :.................................................:
          :  # basis functions                 174          :
          :  # atomic orbitals                 173          :
          :  # shells                          101          :
          :  # electrons                       184          :
          :  max. iterations                   250          :
          :  Hamiltonian                  GFN2-xTB          :
          :  restarted?                      false          :
          :  GBSA solvation                  false          :
          :  PC potential                    false          :
          :  electronic temp.          300.0000000     K    :
          :  accuracy                    1.0000000          :
          :  -> integral cutoff          0.2500000E+02      :
          :  -> integral neglect         0.1000000E-07      :
          :  -> SCF convergence          0.1000000E-05 Eh   :
          :  -> wf. convergence          0.1000000E-03 e    :
          :  Broyden damping             0.4000000          :
          :  net charge                          0          :
          :  unpaired electrons                  0          :
          ...................................................

 iter      E             dE          RMSdq      gap      omega  full diag
   1   -103.6095264 -0.103610E+03  0.415E+00    2.35       0.0  T
   2   -103.8388631 -0.229337E+00  0.267E+00    1.65       1.0  T
   3   -103.8629587 -0.240955E-01  0.140E+00    2.04       1.0  T
   4   -103.8733605 -0.104018E-01  0.491E-01    1.47       1.0  T
   5   -103.8835077 -0.101473E-01  0.173E-01    1.56       1.0  T
   6   -103.8838658 -0.358016E-03  0.948E-02    1.56       1.0  T
   7   -103.8839605 -0.947462E-04  0.570E-02    1.60       1.0  T
   8   -103.8840440 -0.834617E-04  0.260E-02    1.61       1.0  T
   9   -103.8840507 -0.676909E-05  0.102E-02    1.61       1.2  T
  10   -103.8840535 -0.277994E-05  0.474E-03    1.61       2.6  T
  11   -103.8840538 -0.269468E-06  0.207E-03    1.60       5.9  T
  12   -103.8840539 -0.761955E-07  0.639E-04    1.60      19.3  T
  13   -103.8840539 -0.102942E-07  0.323E-04    1.60      38.1  T

   *** convergence criteria satisfied after 13 iterations ***

         #    Occupation            Energy/Eh            Energy/eV
      -------------------------------------------------------------
         1        2.0000           -0.7732784             -21.0420
       ...           ...                  ...                  ...
        86        2.0000           -0.4124852             -11.2243
        87        2.0000           -0.4091740             -11.1342
        88        2.0000           -0.3934409             -10.7061
        89        2.0000           -0.3886302             -10.5752
        90        2.0000           -0.3794993             -10.3267
        91        2.0000           -0.3725428             -10.1374
        92        2.0000           -0.3615093              -9.8372 (HOMO)
        93                         -0.3025480              -8.2328 (LUMO)
        94                         -0.2702007              -7.3525
        95                         -0.2536099              -6.9011
        96                         -0.2309822              -6.2853
        97                         -0.1916354              -5.2147
       ...                                ...                  ...
       173                          1.1502957              31.3011
      -------------------------------------------------------------
                  HL-Gap            0.0589613 Eh            1.6044 eV
             Fermi-level           -0.3320287 Eh           -9.0350 eV

 SCC (total)                   0 d,  0 h,  0 min,  0.213 sec
 SCC setup                      ...        0 min,  0.001 sec (  0.346%)
 Dispersion                     ...        0 min,  0.001 sec (  0.490%)
 classical contributions        ...        0 min,  0.000 sec (  0.164%)
 integral evaluation            ...        0 min,  0.054 sec ( 25.448%)
 iterations                     ...        0 min,  0.099 sec ( 46.544%)
 molecular gradient             ...        0 min,  0.057 sec ( 26.802%)
 printout                       ...        0 min,  0.000 sec (  0.202%)

         :::::::::::::::::::::::::::::::::::::::::::::::::::::
         ::                     SUMMARY                     ::
         :::::::::::::::::::::::::::::::::::::::::::::::::::::
         :: total energy            -102.654809920267 Eh    ::
         :: gradient norm              0.104554046037 Eh/a0 ::
         :: HOMO-LUMO gap              1.604417831935 eV    ::
         ::.................................................::
         :: SCC energy              -103.883372683823 Eh    ::
         :: -> isotropic ES            0.142830250891 Eh    ::
         :: -> anisotropic ES          0.008198803077 Eh    ::
         :: -> anisotropic XC          0.049776581594 Eh    ::
         :: -> dispersion             -0.075265956345 Eh    ::
         :: repulsion energy           1.228562763555 Eh    ::
         :: add. restraining           0.000000000000 Eh    ::
         :: total charge               0.000000000000 e     ::
         :::::::::::::::::::::::::::::::::::::::::::::::::::::

      ----------------------------------------------------------- 
     |                   =====================                   |
     |                        A N C O P T                        |
     |                   =====================                   |
     |               Approximate Normal Coordinate               |
     |                Rational Function Optimizer                |
      ----------------------------------------------------------- 
      ----------------------------------------------------------- 
     |                   =====================                   |
     |                        A N C O P T                        |
     |                   =====================                   |
     |               Approximate Normal Coordinate               |
     |                Rational Function Optimizer                |
      ----------------------------------------------------------- 

          ...................................................
          :                      SETUP                      :
          :.................................................:
          :   optimization level            normal          :
          :   max. optcycles                   200          :
          :   ANC micro-cycles                  20          :
          :   degrees of freedom               192          :
          :.................................................:
          :   RF solver                   davidson          :
          :   write xtbopt.log                true          :
          :   linear?                        false          :
          :   energy convergence         0.5000000E-05 Eh   :
          :   grad. convergence          0.1000000E-02 Eh/α :
          :   maxmium RF displ.          1.0000000          :
          :   Hlow (freq-cutoff)         0.1000000E-01      :
          :   Hmax (freq-cutoff)         5.0000000          :
          :   S6 in model hess.         20.0000000          :
          ...................................................

generating ANC from exact Hessian ...
Using Lindh-Hessian (1995)
 Shifting diagonal of input Hessian by    9.9122322141555457E-003
 Lowest  eigenvalues of input Hessian
    0.000000    0.000000    0.000000    0.000000    0.000000    0.000000
    0.010000    0.010047    0.010124    0.010482    0.010628    0.010849
    0.011110    0.011568    0.011833    0.012010    0.012375    0.012626
 Highest eigenvalues
    2.087021    2.103451    2.319465    2.432205    2.521205    3.436000


........................................................................
.............................. CYCLE    1 ..............................
........................................................................

 iter      E             dE          RMSdq      gap      omega  full diag
   1   -103.8840539 -0.103884E+03  0.134E-04    1.60       0.0  T
   2   -103.8840539 -0.165073E-09  0.871E-05    1.60     141.3  T
   3   -103.8840539 -0.967333E-10  0.586E-05    1.60     210.0  T
     SCC iter.                  ...        0 min,  0.016 sec
     gradient                   ...        0 min,  0.104 sec
 * total energy  :  -102.6548099 Eh     change       -0.1719343E-08 Eh
   gradient norm :     0.1045514 Eh/α   predicted     0.0000000E+00 (-100.00%)
   displ. norm   :     0.3325497 α      lambda       -0.1918004E-01
   maximum displ.:     0.1558692 α      in ANC's #64, #49, #45, ...

........................................................................
.............................. CYCLE    2 ..............................
........................................................................

 iter      E             dE          RMSdq      gap      omega  full diag
   1   -103.9359077 -0.103936E+03  0.181E-01    1.65       0.0  T
   2   -103.9361692 -0.261516E-03  0.116E-01    1.69       1.0  T
   3   -103.9361875 -0.182452E-04  0.602E-02    1.69       1.0  T
   4   -103.9362428 -0.553105E-04  0.219E-02    1.70       1.0  T
   5   -103.9362622 -0.193822E-04  0.640E-03    1.69       1.9  T
   6   -103.9362621  0.105346E-07  0.185E-03    1.69       6.7  T
   7   -103.9362623 -0.125709E-06  0.811E-04    1.69      15.2  T
   8   -103.9362623 -0.122813E-07  0.407E-04    1.69      30.2  T
     SCC iter.                  ...        0 min,  0.051 sec
     gradient                   ...        0 min,  0.099 sec
 * total energy  :  -102.6683313 Eh     change       -0.1352134E-01 Eh
   gradient norm :     0.0456414 Eh/α   predicted    -0.1065568E-01 ( -21.19%)
   displ. norm   :     0.3006573 α      lambda       -0.6556269E-02
   maximum displ.:     0.0998110 α      in ANC's #64, #19, #18, ...

........................................................................
.............................. CYCLE    3 ..............................
........................................................................

 iter      E             dE          RMSdq      gap      omega  full diag
   1   -103.9648157 -0.103965E+03  0.135E-01    1.67       0.0  T
   2   -103.9649755 -0.159781E-03  0.862E-02    1.71       1.0  T
   3   -103.9649919 -0.164155E-04  0.433E-02    1.71       1.0  T
   4   -103.9650189 -0.269750E-04  0.177E-02    1.71       1.0  T
   5   -103.9650304 -0.115449E-04  0.605E-03    1.71       2.0  T
   6   -103.9650304  0.142006E-07  0.160E-03    1.71       7.7  T
   7   -103.9650305 -0.118438E-06  0.637E-04    1.71      19.3  T
   8   -103.9650305 -0.309615E-08  0.308E-04    1.71      39.9  T
     SCC iter.                  ...        0 min,  0.039 sec
     gradient                   ...        0 min,  0.084 sec
 * total energy  :  -102.6721291 Eh     change       -0.3797874E-02 Eh
   gradient norm :     0.0144137 Eh/α   predicted    -0.3575439E-02 (  -5.86%)
   displ. norm   :     0.1845077 α      lambda       -0.8977166E-03
   maximum displ.:     0.0766484 α      in ANC's #19, #18, #15, ...

........................................................................
.............................. CYCLE    4 ..............................
........................................................................

 iter      E             dE          RMSdq      gap      omega  full diag
   1   -103.9667921 -0.103967E+03  0.480E-02    1.70       0.0  T
   2   -103.9668091 -0.170502E-04  0.282E-02    1.71       1.0  T
   3   -103.9668094 -0.219599E-06  0.145E-02    1.71       1.0  T
   4   -103.9668145 -0.513719E-05  0.435E-03    1.71       2.8  T
   5   -103.9668152 -0.704634E-06  0.198E-03    1.71       6.2  T
   6   -103.9668152 -0.384651E-07  0.725E-04    1.71      17.0  T
   7   -103.9668153 -0.222198E-07  0.214E-04    1.71      57.5  T
     SCC iter.                  ...        0 min,  0.049 sec
     gradient                   ...        0 min,  0.102 sec
 * total energy  :  -102.6728233 Eh     change       -0.6941784E-03 Eh
   gradient norm :     0.0119594 Eh/α   predicted    -0.4641425E-03 ( -33.14%)
   displ. norm   :     0.3003372 α      lambda       -0.9967403E-03
   maximum displ.:     0.1313857 α      in ANC's #18, #19, #15, ...

........................................................................
.............................. CYCLE    5 ..............................
........................................................................

 iter      E             dE          RMSdq      gap      omega  full diag
   1   -103.9661896 -0.103966E+03  0.714E-02    1.70       0.0  T
   2   -103.9662380 -0.483882E-04  0.407E-02    1.70       1.0  T
   3   -103.9662437 -0.572277E-05  0.225E-02    1.71       1.0  T
   4   -103.9662524 -0.868972E-05  0.567E-03    1.71       2.2  T
   5   -103.9662543 -0.185954E-05  0.231E-03    1.71       5.3  T
   6   -103.9662544 -0.834883E-07  0.923E-04    1.71      13.3  T
   7   -103.9662544 -0.283589E-07  0.240E-04    1.71      51.3  T
     SCC iter.                  ...        0 min,  0.034 sec
     gradient                   ...        0 min,  0.066 sec
 * total energy  :  -102.6734964 Eh     change       -0.6730660E-03 Eh
   gradient norm :     0.0094674 Eh/α   predicted    -0.5433294E-03 ( -19.28%)
   displ. norm   :     0.2189918 α      lambda       -0.4164279E-03
   maximum displ.:     0.1033032 α      in ANC's #18, #4, #15, ...

........................................................................
.............................. CYCLE    6 ..............................
........................................................................

 iter      E             dE          RMSdq      gap      omega  full diag
   1   -103.9666869 -0.103967E+03  0.487E-02    1.70       0.0  T
   2   -103.9667120 -0.250649E-04  0.275E-02    1.70       1.0  T
   3   -103.9667161 -0.409895E-05  0.157E-02    1.71       1.0  T
   4   -103.9667197 -0.364481E-05  0.423E-03    1.71       2.9  T
   5   -103.9667207 -0.987759E-06  0.141E-03    1.71       8.7  T
   6   -103.9667207 -0.299532E-07  0.691E-04    1.71      17.8  T
   7   -103.9667207 -0.120665E-07  0.182E-04    1.71      67.5  T
     SCC iter.                  ...        0 min,  0.064 sec
     gradient                   ...        0 min,  0.087 sec
 * total energy  :  -102.6737965 Eh     change       -0.3001186E-03 Eh
   gradient norm :     0.0078629 Eh/α   predicted    -0.2182141E-03 ( -27.29%)
   displ. norm   :     0.2086909 α      lambda       -0.2911461E-03
   maximum displ.:     0.1040306 α      in ANC's #4, #18, #15, ...

........................................................................
.............................. CYCLE    7 ..............................
........................................................................

 iter      E             dE          RMSdq      gap      omega  full diag
   1   -103.9683843 -0.103968E+03  0.442E-02    1.71       0.0  T
   2   -103.9684005 -0.161840E-04  0.249E-02    1.71       1.0  T
   3   -103.9684021 -0.158898E-05  0.142E-02    1.71       1.0  T
   4   -103.9684062 -0.406330E-05  0.371E-03    1.71       3.3  T
   5   -103.9684068 -0.620133E-06  0.136E-03    1.71       9.1  T
   6   -103.9684068 -0.227085E-07  0.626E-04    1.71      19.7  T
   7   -103.9684068 -0.119662E-07  0.172E-04    1.71      71.6  T
     SCC iter.                  ...        0 min,  0.034 sec
     gradient                   ...        0 min,  0.066 sec
 * total energy  :  -102.6740020 Eh     change       -0.2055311E-03 Eh
   gradient norm :     0.0055267 Eh/α   predicted    -0.1520284E-03 ( -26.03%)
   displ. norm   :     0.1758562 α      lambda       -0.1650479E-03
   maximum displ.:     0.1005929 α      in ANC's #4, #18, #14, ...

........................................................................
.............................. CYCLE    8 ..............................
........................................................................

 iter      E             dE          RMSdq      gap      omega  full diag
   1   -103.9699248 -0.103970E+03  0.329E-02    1.72       0.0  T
   2   -103.9699301 -0.536058E-05  0.186E-02    1.71       1.0  T
   3   -103.9699292  0.985422E-06  0.103E-02    1.72       1.2  T
   4   -103.9699324 -0.320443E-05  0.223E-03    1.71       5.5  T
   5   -103.9699325 -0.175590E-06  0.954E-04    1.71      12.9  T
   6   -103.9699325 -0.139848E-07  0.391E-04    1.71      31.5  T
     SCC iter.                  ...        0 min,  0.029 sec
     gradient                   ...        0 min,  0.083 sec
 * total energy  :  -102.6741199 Eh     change       -0.1178997E-03 Eh
   gradient norm :     0.0036656 Eh/α   predicted    -0.8510221E-04 ( -27.82%)
   displ. norm   :     0.1579957 α      lambda       -0.1017212E-03
   maximum displ.:     0.0976031 α      in ANC's #4, #14, #18, ...

........................................................................
.............................. CYCLE    9 ..............................
........................................................................

 iter      E             dE          RMSdq      gap      omega  full diag
   1   -103.9706667 -0.103971E+03  0.258E-02    1.72       0.0  T
   2   -103.9706685 -0.181398E-05  0.146E-02    1.72       1.0  T
   3   -103.9706674  0.110848E-05  0.695E-03    1.72       1.8  T
   4   -103.9706693 -0.185092E-05  0.130E-03    1.72       9.5  T
   5   -103.9706693 -0.451712E-07  0.646E-04    1.72      19.1  T
   6   -103.9706693 -0.100779E-07  0.245E-04    1.72      50.3  T
     SCC iter.                  ...        0 min,  0.038 sec
     gradient                   ...        0 min,  0.057 sec
 * total energy  :  -102.6741940 Eh     change       -0.7401938E-04 Eh
   gradient norm :     0.0028208 Eh/α   predicted    -0.5218832E-04 ( -29.49%)
   displ. norm   :     0.1450558 α      lambda       -0.6962424E-04
   maximum displ.:     0.0937143 α      in ANC's #4, #11, #14, ...

........................................................................
.............................. CYCLE   10 ..............................
........................................................................

 iter      E             dE          RMSdq      gap      omega  full diag
   1   -103.9707404 -0.103971E+03  0.228E-02    1.72       0.0  T
   2   -103.9707413 -0.876615E-06  0.130E-02    1.72       1.0  T
   3   -103.9707408  0.553638E-06  0.457E-03    1.72       2.7  T
   4   -103.9707416 -0.824560E-06  0.107E-03    1.72      11.5  T
   5   -103.9707416 -0.295935E-07  0.480E-04    1.72      25.7  T
   6   -103.9707416 -0.373805E-08  0.169E-04    1.72      72.9  T
     SCC iter.                  ...        0 min,  0.029 sec
     gradient                   ...        0 min,  0.072 sec
 * total energy  :  -102.6742458 Eh     change       -0.5187467E-04 Eh
   gradient norm :     0.0025919 Eh/α   predicted    -0.3554554E-04 ( -31.48%)
   displ. norm   :     0.1346406 α      lambda       -0.5292980E-04
   maximum displ.:     0.0891482 α      in ANC's #4, #11, #6, ...

........................................................................
.............................. CYCLE   11 ..............................
........................................................................

 iter      E             dE          RMSdq      gap      omega  full diag
   1   -103.9704871 -0.103970E+03  0.227E-02    1.71       0.0  T
   2   -103.9704877 -0.575854E-06  0.130E-02    1.71       1.0  T
   3   -103.9704871  0.579139E-06  0.406E-03    1.71       3.0  T
   4   -103.9704878 -0.752206E-06  0.112E-03    1.71      10.9  T
   5   -103.9704879 -0.396676E-07  0.456E-04    1.71      27.0  T
   6   -103.9704879 -0.284946E-08  0.149E-04    1.71      82.6  T
     SCC iter.                  ...        0 min,  0.029 sec
     gradient                   ...        0 min,  0.066 sec
 * total energy  :  -102.6742864 Eh     change       -0.4055388E-04 Eh
   gradient norm :     0.0023417 Eh/α   predicted    -0.2694921E-04 ( -33.55%)
   displ. norm   :     0.1311786 α      lambda       -0.4464488E-04
   maximum displ.:     0.0880275 α      in ANC's #4, #8, #6, ...

........................................................................
.............................. CYCLE   12 ..............................
........................................................................

 iter      E             dE          RMSdq      gap      omega  full diag
   1   -103.9702116 -0.103970E+03  0.238E-02    1.71       0.0  T
   2   -103.9702120 -0.459120E-06  0.137E-02    1.71       1.0  T
   3   -103.9702113  0.685095E-06  0.401E-03    1.71       3.1  T
   4   -103.9702122 -0.840791E-06  0.101E-03    1.71      12.2  T
   5   -103.9702122 -0.361860E-07  0.401E-04    1.71      30.7  T
   6   -103.9702122 -0.202071E-08  0.123E-04    1.71     100.0  T
     SCC iter.                  ...        0 min,  0.029 sec
     gradient                   ...        0 min,  0.078 sec
 * total energy  :  -102.6743215 Eh     change       -0.3510293E-04 Eh
   gradient norm :     0.0021553 Eh/α   predicted    -0.2270728E-04 ( -35.31%)
   displ. norm   :     0.1337343 α      lambda       -0.4092440E-04
   maximum displ.:     0.0904368 α      in ANC's #4, #8, #6, ...

........................................................................
.............................. CYCLE   13 ..............................
........................................................................

 iter      E             dE          RMSdq      gap      omega  full diag
   1   -103.9700140 -0.103970E+03  0.248E-02    1.71       0.0  T
   2   -103.9700145 -0.469531E-06  0.143E-02    1.71       1.0  T
   3   -103.9700139  0.605171E-06  0.371E-03    1.71       3.3  T
   4   -103.9700146 -0.747129E-06  0.887E-04    1.71      13.9  T
   5   -103.9700146 -0.294582E-07  0.368E-04    1.71      33.5  T
     SCC iter.                  ...        0 min,  0.025 sec
     gradient                   ...        0 min,  0.062 sec
 * total energy  :  -102.6743543 Eh     change       -0.3282161E-04 Eh
   gradient norm :     0.0021466 Eh/α   predicted    -0.2083042E-04 ( -36.53%)
   displ. norm   :     0.1412822 α      lambda       -0.3939232E-04
   maximum displ.:     0.0963871 α      in ANC's #4, #8, #6, ...

........................................................................
.............................. CYCLE   14 ..............................
........................................................................

 iter      E             dE          RMSdq      gap      omega  full diag
   1   -103.9700189 -0.103970E+03  0.254E-02    1.71       0.0  T
   2   -103.9700193 -0.443338E-06  0.147E-02    1.71       1.0  T
   3   -103.9700189  0.457911E-06  0.321E-03    1.71       3.8  T
   4   -103.9700195 -0.585147E-06  0.846E-04    1.71      14.5  T
   5   -103.9700195 -0.203057E-07  0.348E-04    1.71      35.4  T
     SCC iter.                  ...        0 min,  0.040 sec
     gradient                   ...        0 min,  0.057 sec
 * total energy  :  -102.6743862 Eh     change       -0.3192381E-04 Eh
   gradient norm :     0.0022563 Eh/α   predicted    -0.2009385E-04 ( -37.06%)
   displ. norm   :     0.1485498 α      lambda       -0.3744887E-04
   maximum displ.:     0.1023818 α      in ANC's #4, #8, #6, ...

........................................................................
.............................. CYCLE   15 ..............................
........................................................................

 iter      E             dE          RMSdq      gap      omega  full diag
   1   -103.9701010 -0.103970E+03  0.251E-02    1.71       0.0  T
   2   -103.9701015 -0.430960E-06  0.145E-02    1.71       1.0  T
   3   -103.9701010  0.437014E-06  0.317E-03    1.71       3.9  T
   4   -103.9701016 -0.569073E-06  0.902E-04    1.71      13.7  T
   5   -103.9701016 -0.162939E-07  0.343E-04    1.71      35.9  T
     SCC iter.                  ...        0 min,  0.035 sec
     gradient                   ...        0 min,  0.057 sec
 * total energy  :  -102.6744168 Eh     change       -0.3055118E-04 Eh
   gradient norm :     0.0021267 Eh/α   predicted    -0.1913889E-04 ( -37.35%)
   displ. norm   :     0.1554100 α      lambda       -0.3502924E-04
   maximum displ.:     0.1077919 α      in ANC's #4, #8, #6, ...

........................................................................
.............................. CYCLE   16 ..............................
........................................................................

 iter      E             dE          RMSdq      gap      omega  full diag
   1   -103.9702741 -0.103970E+03  0.244E-02    1.71       0.0  T
   2   -103.9702745 -0.376003E-06  0.141E-02    1.71       1.0  T
   3   -103.9702742  0.338229E-06  0.291E-03    1.71       4.2  T
   4   -103.9702746 -0.449013E-06  0.945E-04    1.71      13.0  T
   5   -103.9702747 -0.223988E-07  0.329E-04    1.71      37.4  T
     SCC iter.                  ...        0 min,  0.025 sec
     gradient                   ...        0 min,  0.057 sec
 * total energy  :  -102.6744456 Eh     change       -0.2878238E-04 Eh
   gradient norm :     0.0019311 Eh/α   predicted    -0.1794212E-04 ( -37.66%)
   displ. norm   :     0.2410196 α      lambda       -0.3278523E-04
   maximum displ.:     0.1683335 α      in ANC's #4, #8, #6, ...

........................................................................
.............................. CYCLE   17 ..............................
........................................................................

 iter      E             dE          RMSdq      gap      omega  full diag
   1   -103.9701997 -0.103970E+03  0.356E-02    1.71       0.0  T
   2   -103.9702007 -0.975624E-06  0.207E-02    1.71       1.0  T
   3   -103.9701998  0.843970E-06  0.477E-03    1.71       2.6  T
   4   -103.9702009 -0.110541E-05  0.147E-03    1.71       8.4  T
   5   -103.9702010 -0.718832E-07  0.578E-04    1.71      21.3  T
   6   -103.9702010 -0.710472E-08  0.231E-04    1.71      53.3  T
     SCC iter.                  ...        0 min,  0.030 sec
     gradient                   ...        0 min,  0.058 sec
 * total energy  :  -102.6744811 Eh     change       -0.3555166E-04 Eh
   gradient norm :     0.0017982 Eh/α   predicted    -0.1681814E-04 ( -52.69%)
   displ. norm   :     0.1678291 α      lambda       -0.2119423E-04
   maximum displ.:     0.1180275 α      in ANC's #4, #8, #1, ...

........................................................................
.............................. CYCLE   18 ..............................
........................................................................

 iter      E             dE          RMSdq      gap      omega  full diag
   1   -103.9704713 -0.103970E+03  0.238E-02    1.71       0.0  T
   2   -103.9704717 -0.352689E-06  0.140E-02    1.71       1.0  T
   3   -103.9704716  0.998944E-07  0.208E-03    1.71       5.9  T
   4   -103.9704717 -0.172953E-06  0.896E-04    1.71      13.7  T
   5   -103.9704718 -0.305221E-07  0.371E-04    1.71      33.2  T
     SCC iter.                  ...        0 min,  0.028 sec
     gradient                   ...        0 min,  0.058 sec
 * total energy  :  -102.6745057 Eh     change       -0.2461242E-04 Eh
   gradient norm :     0.0022530 Eh/α   predicted    -0.1073097E-04 ( -56.40%)
   displ. norm   :     0.1334629 α      lambda       -0.2759312E-04
   maximum displ.:     0.0933785 α      in ANC's #4, #1, #8, ...

........................................................................
.............................. CYCLE   19 ..............................
........................................................................

 iter      E             dE          RMSdq      gap      omega  full diag
   1   -103.9702452 -0.103970E+03  0.193E-02    1.71       0.0  T
   2   -103.9702455 -0.322058E-06  0.113E-02    1.71       1.1  T
   3   -103.9702452  0.334885E-06  0.290E-03    1.71       4.2  T
   4   -103.9702456 -0.437792E-06  0.743E-04    1.71      16.6  T
   5   -103.9702456 -0.147699E-07  0.354E-04    1.71      34.8  T
     SCC iter.                  ...        0 min,  0.025 sec
     gradient                   ...        0 min,  0.058 sec
 * total energy  :  -102.6745277 Eh     change       -0.2200405E-04 Eh
   gradient norm :     0.0016219 Eh/α   predicted    -0.1404512E-04 ( -36.17%)
   displ. norm   :     0.2608846 α      lambda       -0.3017219E-04
   maximum displ.:     0.1811879 α      in ANC's #4, #1, #20, ...

........................................................................
.............................. CYCLE   20 ..............................
........................................................................

 iter      E             dE          RMSdq      gap      omega  full diag
   1   -103.9699217 -0.103970E+03  0.374E-02    1.70       0.0  T
   2   -103.9699224 -0.678397E-06  0.221E-02    1.70       1.0  T
   3   -103.9699217  0.693862E-06  0.399E-03    1.70       3.1  T
   4   -103.9699226 -0.944448E-06  0.131E-03    1.70       9.4  T
   5   -103.9699227 -0.326455E-07  0.565E-04    1.70      21.8  T
   6   -103.9699227 -0.460862E-08  0.204E-04    1.70      60.2  T
     SCC iter.                  ...        0 min,  0.029 sec
     gradient                   ...        0 min,  0.057 sec
 * total energy  :  -102.6745593 Eh     change       -0.3157374E-04 Eh
   gradient norm :     0.0021470 Eh/α   predicted    -0.1554326E-04 ( -50.77%)
   displ. norm   :     0.1134420 α      lambda       -0.1849383E-04
   maximum displ.:     0.0791143 α      in ANC's #4, #1, #20, ...
 * RMSD in coord.:     0.3302536 α      energy gain  -0.1974938E-01 Eh

generating ANC from exact Hessian ...
Using Lindh-Hessian (1995)
 Shifting diagonal of input Hessian by    9.9046879548714949E-003
 Lowest  eigenvalues of input Hessian
    0.000000    0.000000    0.000000    0.000000    0.000000    0.000000
    0.010000    0.010044    0.010127    0.010477    0.010630    0.010989
    0.011203    0.011594    0.011850    0.012192    0.012476    0.012862
 Highest eigenvalues
    2.099423    2.201691    2.356447    2.434285    2.716075    3.585279


........................................................................
.............................. CYCLE   21 ..............................
........................................................................

 iter      E             dE          RMSdq      gap      omega  full diag
   1   -103.9701171 -0.103970E+03  0.155E-02    1.70       0.0  T
   2   -103.9701172 -0.110419E-06  0.921E-03    1.70       1.3  T
   3   -103.9701171  0.126122E-06  0.163E-03    1.70       7.6  T
   4   -103.9701173 -0.170106E-06  0.492E-04    1.70      25.0  T
   5   -103.9701173 -0.370858E-08  0.219E-04    1.70      56.3  T
     SCC iter.                  ...        0 min,  0.025 sec
     gradient                   ...        0 min,  0.060 sec
 * total energy  :  -102.6745756 Eh     change       -0.1631762E-04 Eh
   gradient norm :     0.0018676 Eh/α   predicted     0.0000000E+00 (-100.00%)
   displ. norm   :     0.0311080 α      lambda       -0.8800512E-05
   maximum displ.:     0.0139356 α      in ANC's #8, #4, #19, ...

........................................................................
.............................. CYCLE   22 ..............................
........................................................................

 iter      E             dE          RMSdq      gap      omega  full diag
   1   -103.9705972 -0.103971E+03  0.531E-03    1.70       0.0  T
   2   -103.9705972 -0.786520E-07  0.300E-03    1.70       4.1  T
   3   -103.9705972  0.164287E-07  0.107E-03    1.70      11.5  T
   4   -103.9705972 -0.246548E-07  0.404E-04    1.70      30.5  T
   5   -103.9705972 -0.629301E-08  0.140E-04    1.70      88.1  T
     SCC iter.                  ...        0 min,  0.025 sec
     gradient                   ...        0 min,  0.058 sec
 * total energy  :  -102.6745884 Eh     change       -0.1273673E-04 Eh
   gradient norm :     0.0008818 Eh/α   predicted    -0.5138296E-05 ( -59.66%)
   displ. norm   :     0.1125235 α      lambda       -0.2357086E-04
   maximum displ.:     0.0514838 α      in ANC's #8, #4, #19, ...

........................................................................
.............................. CYCLE   23 ..............................
........................................................................

 iter      E             dE          RMSdq      gap      omega  full diag
   1   -103.9707312 -0.103971E+03  0.159E-02    1.70       0.0  T
   2   -103.9707316 -0.405430E-06  0.906E-03    1.70       1.4  T
   3   -103.9707315  0.130324E-06  0.266E-03    1.70       4.6  T
   4   -103.9707317 -0.181736E-06  0.979E-04    1.70      12.6  T
   5   -103.9707317 -0.347174E-07  0.334E-04    1.70      36.8  T
     SCC iter.                  ...        0 min,  0.025 sec
     gradient                   ...        0 min,  0.057 sec
 * total energy  :  -102.6746117 Eh     change       -0.2331378E-04 Eh
   gradient norm :     0.0014953 Eh/α   predicted    -0.1185232E-04 ( -49.16%)
   displ. norm   :     0.1088685 α      lambda       -0.1307005E-04
   maximum displ.:     0.0493324 α      in ANC's #8, #4, #19, ...

........................................................................
.............................. CYCLE   24 ..............................
........................................................................

 iter      E             dE          RMSdq      gap      omega  full diag
   1   -103.9707807 -0.103971E+03  0.133E-02    1.70       0.0  T
   2   -103.9707808 -0.139454E-06  0.774E-03    1.70       1.6  T
   3   -103.9707808  0.527699E-07  0.154E-03    1.70       8.0  T
   4   -103.9707808 -0.781051E-07  0.594E-04    1.70      20.7  T
   5   -103.9707808 -0.105928E-07  0.209E-04    1.70      59.0  T
     SCC iter.                  ...        0 min,  0.025 sec
     gradient                   ...        0 min,  0.064 sec
 * total energy  :  -102.6746277 Eh     change       -0.1603254E-04 Eh
   gradient norm :     0.0020226 Eh/α   predicted    -0.6569597E-05 ( -59.02%)
   displ. norm   :     0.1756990 α      lambda       -0.3049598E-04
   maximum displ.:     0.0770388 α      in ANC's #8, #4, #19, ...

........................................................................
.............................. CYCLE   25 ..............................
........................................................................

 iter      E             dE          RMSdq      gap      omega  full diag
   1   -103.9705870 -0.103971E+03  0.208E-02    1.70       0.0  T
   2   -103.9705873 -0.212622E-06  0.122E-02    1.70       1.0  T
   3   -103.9705872  0.660699E-07  0.180E-03    1.70       6.9  T
   4   -103.9705873 -0.115803E-06  0.716E-04    1.70      17.2  T
   5   -103.9705873 -0.114185E-07  0.269E-04    1.70      45.7  T
     SCC iter.                  ...        0 min,  0.025 sec
     gradient                   ...        0 min,  0.058 sec
 * total energy  :  -102.6746531 Eh     change       -0.2535004E-04 Eh
   gradient norm :     0.0023575 Eh/α   predicted    -0.1572172E-04 ( -37.98%)
   displ. norm   :     0.3265283 α      lambda       -0.5191613E-04
   maximum displ.:     0.1416366 α      in ANC's #4, #19, #8, ...

........................................................................
.............................. CYCLE   26 ..............................
........................................................................

 iter      E             dE          RMSdq      gap      omega  full diag
   1   -103.9693567 -0.103969E+03  0.384E-02    1.70       0.0  T
   2   -103.9693574 -0.725640E-06  0.226E-02    1.70       1.0  T
   3   -103.9693572  0.218002E-06  0.308E-03    1.70       4.0  T
   4   -103.9693576 -0.389688E-06  0.119E-03    1.70      10.3  T
   5   -103.9693576 -0.288491E-07  0.517E-04    1.70      23.8  T
   6   -103.9693576 -0.666438E-08  0.184E-04    1.70      66.7  T
     SCC iter.                  ...        0 min,  0.030 sec
     gradient                   ...        0 min,  0.058 sec
 * total energy  :  -102.6746821 Eh     change       -0.2904659E-04 Eh
   gradient norm :     0.0041442 Eh/α   predicted    -0.2874316E-04 (  -1.04%)
   displ. norm   :     0.0667787 α      lambda       -0.3237533E-04
   maximum displ.:     0.0333540 α      in ANC's #4, #5, #8, ...

........................................................................
.............................. CYCLE   27 ..............................
........................................................................

 iter      E             dE          RMSdq      gap      omega  full diag
   1   -103.9699601 -0.103970E+03  0.911E-03    1.70       0.0  T
   2   -103.9699602 -0.121733E-06  0.527E-03    1.70       2.3  T
   3   -103.9699601  0.270634E-07  0.111E-03    1.70      11.1  T
   4   -103.9699602 -0.355185E-07  0.454E-04    1.70      27.1  T
   5   -103.9699602 -0.933633E-08  0.149E-04    1.70      82.7  T
     SCC iter.                  ...        0 min,  0.025 sec
     gradient                   ...        0 min,  0.057 sec
 * total energy  :  -102.6747093 Eh     change       -0.2718323E-04 Eh
   gradient norm :     0.0028088 Eh/α   predicted    -0.1626375E-04 ( -40.17%)
   displ. norm   :     0.2801944 α      lambda       -0.6872593E-04
   maximum displ.:     0.1347755 α      in ANC's #4, #19, #5, ...

........................................................................
.............................. CYCLE   28 ..............................
........................................................................

 iter      E             dE          RMSdq      gap      omega  full diag
   1   -103.9701449 -0.103970E+03  0.339E-02    1.70       0.0  T
   2   -103.9701454 -0.506946E-06  0.199E-02    1.70       1.0  T
   3   -103.9701451  0.286285E-06  0.293E-03    1.70       4.2  T
   4   -103.9701455 -0.385587E-06  0.120E-03    1.70      10.2  T
   5   -103.9701455 -0.573226E-07  0.426E-04    1.70      28.9  T
   6   -103.9701455 -0.169399E-08  0.166E-04    1.70      74.0  T
     SCC iter.                  ...        0 min,  0.029 sec
     gradient                   ...        0 min,  0.057 sec
 * total energy  :  -102.6747586 Eh     change       -0.4936184E-04 Eh
   gradient norm :     0.0026285 Eh/α   predicted    -0.3706122E-04 ( -24.92%)
   displ. norm   :     0.2165381 α      lambda       -0.4407962E-04
   maximum displ.:     0.1091781 α      in ANC's #4, #5, #19, ...

........................................................................
.............................. CYCLE   29 ..............................
........................................................................

 iter      E             dE          RMSdq      gap      omega  full diag
   1   -103.9703319 -0.103970E+03  0.263E-02    1.69       0.0  T
   2   -103.9703322 -0.366734E-06  0.152E-02    1.69       1.0  T
   3   -103.9703320  0.216427E-06  0.277E-03    1.69       4.4  T
   4   -103.9703323 -0.274822E-06  0.115E-03    1.69      10.7  T
   5   -103.9703324 -0.531904E-07  0.379E-04    1.69      32.5  T
   6   -103.9703324 -0.171816E-08  0.136E-04    1.69      90.6  T
     SCC iter.                  ...        0 min,  0.030 sec
     gradient                   ...        0 min,  0.057 sec
 * total energy  :  -102.6747918 Eh     change       -0.3317959E-04 Eh
   gradient norm :     0.0025899 Eh/α   predicted    -0.2307409E-04 ( -30.46%)
   displ. norm   :     0.2621230 α      lambda       -0.4086500E-04
   maximum displ.:     0.1348242 α      in ANC's #4, #5, #19, ...

........................................................................
.............................. CYCLE   30 ..............................
........................................................................

 iter      E             dE          RMSdq      gap      omega  full diag
   1   -103.9696608 -0.103970E+03  0.304E-02    1.69       0.0  T
   2   -103.9696612 -0.401429E-06  0.177E-02    1.69       1.0  T
   3   -103.9696610  0.199213E-06  0.273E-03    1.69       4.5  T
   4   -103.9696612 -0.258470E-06  0.122E-03    1.69      10.1  T
   5   -103.9696613 -0.650615E-07  0.419E-04    1.69      29.4  T
   6   -103.9696613 -0.259521E-08  0.147E-04    1.69      83.9  T
     SCC iter.                  ...        0 min,  0.029 sec
     gradient                   ...        0 min,  0.061 sec
 * total energy  :  -102.6748212 Eh     change       -0.2935687E-04 Eh
   gradient norm :     0.0032123 Eh/α   predicted    -0.2183750E-04 ( -25.61%)
   displ. norm   :     0.2491689 α      lambda       -0.7615393E-04
   maximum displ.:     0.1345396 α      in ANC's #4, #1, #10, ...

........................................................................
.............................. CYCLE   31 ..............................
........................................................................

 iter      E             dE          RMSdq      gap      omega  full diag
   1   -103.9720189 -0.103972E+03  0.360E-02    1.69       0.0  T
   2   -103.9720209 -0.194472E-05  0.201E-02    1.69       1.0  T
   3   -103.9720206  0.276908E-06  0.483E-03    1.69       2.6  T
   4   -103.9720210 -0.453528E-06  0.204E-03    1.69       6.0  T
   5   -103.9720212 -0.142800E-06  0.756E-04    1.69      16.3  T
   6   -103.9720212 -0.100598E-07  0.219E-04    1.69      56.2  T
     SCC iter.                  ...        0 min,  0.029 sec
     gradient                   ...        0 min,  0.063 sec
 * total energy  :  -102.6748266 Eh     change       -0.5432940E-05 Eh
   gradient norm :     0.0047981 Eh/α   predicted    -0.4044483E-04 ( 644.44%)
   displ. norm   :     0.2432331 α      lambda       -0.8223984E-04
   maximum displ.:     0.1247924 α      in ANC's #4, #19, #5, ...

........................................................................
.............................. CYCLE   32 ..............................
........................................................................

 iter      E             dE          RMSdq      gap      omega  full diag
   1   -103.9690830 -0.103969E+03  0.288E-02    1.69       0.0  T
   2   -103.9690842 -0.114288E-05  0.169E-02    1.69       1.0  T
   3   -103.9690841  0.995200E-07  0.277E-03    1.69       4.4  T
   4   -103.9690843 -0.193589E-06  0.110E-03    1.69      11.2  T
   5   -103.9690843 -0.555007E-07  0.509E-04    1.69      24.2  T
   6   -103.9690843 -0.249619E-08  0.162E-04    1.69      76.1  T
     SCC iter.                  ...        0 min,  0.029 sec
     gradient                   ...        0 min,  0.057 sec
 * total energy  :  -102.6748618 Eh     change       -0.3513783E-04 Eh
   gradient norm :     0.0041430 Eh/α   predicted    -0.4355299E-04 (  23.95%)
   displ. norm   :     0.1642066 α      lambda       -0.4162331E-04
   maximum displ.:     0.0781386 α      in ANC's #4, #5, #1, ...

........................................................................
.............................. CYCLE   33 ..............................
........................................................................

 iter      E             dE          RMSdq      gap      omega  full diag
   1   -103.9703049 -0.103970E+03  0.234E-02    1.69       0.0  T
   2   -103.9703054 -0.545414E-06  0.132E-02    1.69       1.0  T
   3   -103.9703052  0.194585E-06  0.315E-03    1.69       3.9  T
   4   -103.9703055 -0.257037E-06  0.134E-03    1.69       9.2  T
   5   -103.9703056 -0.618817E-07  0.442E-04    1.69      27.8  T
   6   -103.9703056 -0.346836E-08  0.146E-04    1.69      84.2  T
     SCC iter.                  ...        0 min,  0.029 sec
     gradient                   ...        0 min,  0.058 sec
 * total energy  :  -102.6748831 Eh     change       -0.2138949E-04 Eh
   gradient norm :     0.0017217 Eh/α   predicted    -0.2137337E-04 (  -0.08%)
   displ. norm   :     0.1351488 α      lambda       -0.1931280E-04
   maximum displ.:     0.0838655 α      in ANC's #4, #1, #19, ...

........................................................................
.............................. CYCLE   34 ..............................
........................................................................

 iter      E             dE          RMSdq      gap      omega  full diag
   1   -103.9706190 -0.103971E+03  0.156E-02    1.69       0.0  T
   2   -103.9706191 -0.148178E-06  0.920E-03    1.69       1.3  T
   3   -103.9706190  0.940710E-07  0.161E-03    1.69       7.6  T
   4   -103.9706192 -0.127417E-06  0.489E-04    1.69      25.2  T
   5   -103.9706192 -0.489581E-08  0.207E-04    1.69      59.4  T
     SCC iter.                  ...        0 min,  0.025 sec
     gradient                   ...        0 min,  0.058 sec
 * total energy  :  -102.6749063 Eh     change       -0.2311098E-04 Eh
   gradient norm :     0.0013673 Eh/α   predicted    -0.9736528E-05 ( -57.87%)
   displ. norm   :     0.3349407 α      lambda       -0.3107504E-04
   maximum displ.:     0.2048708 α      in ANC's #4, #1, #19, ...

........................................................................
.............................. CYCLE   35 ..............................
........................................................................

 iter      E             dE          RMSdq      gap      omega  full diag
   1   -103.9699782 -0.103970E+03  0.362E-02    1.69       0.0  T
   2   -103.9699786 -0.405799E-06  0.214E-02    1.69       1.0  T
   3   -103.9699784  0.164720E-06  0.256E-03    1.69       4.8  T
   4   -103.9699787 -0.282520E-06  0.103E-03    1.69      12.0  T
   5   -103.9699787 -0.248295E-07  0.375E-04    1.69      32.8  T
   6   -103.9699787 -0.269645E-08  0.131E-04    1.69      94.2  T
     SCC iter.                  ...        0 min,  0.029 sec
     gradient                   ...        0 min,  0.057 sec
 * total energy  :  -102.6749378 Eh     change       -0.3154649E-04 Eh
   gradient norm :     0.0028448 Eh/α   predicted    -0.1631302E-04 ( -48.29%)
   displ. norm   :     0.1622193 α      lambda       -0.2884840E-04
   maximum displ.:     0.1048130 α      in ANC's #4, #1, #19, ...

........................................................................
.............................. CYCLE   36 ..............................
........................................................................

 iter      E             dE          RMSdq      gap      omega  full diag
   1   -103.9703142 -0.103970E+03  0.199E-02    1.69       0.0  T
   2   -103.9703144 -0.223580E-06  0.116E-02    1.69       1.1  T
   3   -103.9703143  0.135141E-06  0.200E-03    1.69       6.2  T
   4   -103.9703145 -0.184724E-06  0.667E-04    1.69      18.5  T
   5   -103.9703145 -0.121022E-07  0.265E-04    1.69      46.5  T
     SCC iter.                  ...        0 min,  0.024 sec
     gradient                   ...        0 min,  0.058 sec
 * total energy  :  -102.6749607 Eh     change       -0.2293823E-04 Eh
   gradient norm :     0.0019496 Eh/α   predicted    -0.1480392E-04 ( -35.46%)
   displ. norm   :     0.4210964 α      lambda       -0.3737083E-04
   maximum displ.:     0.2720693 α      in ANC's #4, #1, #19, ...

........................................................................
.............................. CYCLE   37 ..............................
........................................................................

 iter      E             dE          RMSdq      gap      omega  full diag
   1   -103.9694823 -0.103969E+03  0.504E-02    1.69       0.0  T
   2   -103.9694834 -0.112238E-05  0.295E-02    1.69       1.0  T
   3   -103.9694825  0.896875E-06  0.503E-03    1.69       2.4  T
   4   -103.9694837 -0.122247E-05  0.163E-03    1.69       7.5  T
   5   -103.9694838 -0.634730E-07  0.647E-04    1.69      19.0  T
   6   -103.9694838 -0.897992E-08  0.214E-04    1.69      57.6  T
     SCC iter.                  ...        0 min,  0.029 sec
     gradient                   ...        0 min,  0.057 sec
 * total energy  :  -102.6749927 Eh     change       -0.3199967E-04 Eh
   gradient norm :     0.0026928 Eh/α   predicted    -0.2016230E-04 ( -36.99%)
   displ. norm   :     0.0982654 α      lambda       -0.3759663E-04
   maximum displ.:     0.0507732 α      in ANC's #4, #8, #1, ...

........................................................................
.............................. CYCLE   38 ..............................
........................................................................

 iter      E             dE          RMSdq      gap      omega  full diag
   1   -103.9711746 -0.103971E+03  0.192E-02    1.69       0.0  T
   2   -103.9711753 -0.678234E-06  0.110E-02    1.69       1.1  T
   3   -103.9711751  0.222486E-06  0.286E-03    1.69       4.3  T
   4   -103.9711754 -0.310688E-06  0.870E-04    1.68      14.2  T
   5   -103.9711754 -0.292371E-07  0.343E-04    1.68      35.9  T
     SCC iter.                  ...        0 min,  0.024 sec
     gradient                   ...        0 min,  0.059 sec
 * total energy  :  -102.6750073 Eh     change       -0.1460241E-04 Eh
   gradient norm :     0.0020513 Eh/α   predicted    -0.1898772E-04 (  30.03%)
   displ. norm   :     0.1412998 α      lambda       -0.2024278E-04
   maximum displ.:     0.0920050 α      in ANC's #4, #1, #19, ...

........................................................................
.............................. CYCLE   39 ..............................
........................................................................

 iter      E             dE          RMSdq      gap      omega  full diag
   1   -103.9703431 -0.103970E+03  0.172E-02    1.68       0.0  T
   2   -103.9703434 -0.221640E-06  0.100E-02    1.68       1.2  T
   3   -103.9703432  0.208023E-06  0.223E-03    1.68       5.5  T
   4   -103.9703434 -0.258987E-06  0.701E-04    1.68      17.5  T
   5   -103.9703434 -0.160845E-07  0.282E-04    1.68      43.6  T
     SCC iter.                  ...        0 min,  0.024 sec
     gradient                   ...        0 min,  0.057 sec
 * total energy  :  -102.6750234 Eh     change       -0.1606771E-04 Eh
   gradient norm :     0.0013771 Eh/α   predicted    -0.1032600E-04 ( -35.73%)
   displ. norm   :     0.3798484 α      lambda       -0.2949090E-04
   maximum displ.:     0.2430607 α      in ANC's #4, #1, #19, ...

........................................................................
.............................. CYCLE   40 ..............................
........................................................................

 iter      E             dE          RMSdq      gap      omega  full diag
   1   -103.9684728 -0.103968E+03  0.485E-02    1.68       0.0  T
   2   -103.9684746 -0.175146E-05  0.283E-02    1.68       1.0  T
   3   -103.9684726  0.202507E-05  0.653E-03    1.68       1.9  T
   4   -103.9684751 -0.251330E-05  0.182E-03    1.68       6.8  T
   5   -103.9684752 -0.953453E-07  0.777E-04    1.68      15.8  T
   6   -103.9684752 -0.856684E-08  0.276E-04    1.68      44.7  T
     SCC iter.                  ...        0 min,  0.035 sec
     gradient                   ...        0 min,  0.058 sec
 * total energy  :  -102.6750261 Eh     change       -0.2673184E-05 Eh
   gradient norm :     0.0049213 Eh/α   predicted    -0.1569545E-04 ( 487.14%)
   displ. norm   :     0.1305441 α      lambda       -0.4108065E-04
   maximum displ.:     0.0821443 α      in ANC's #4, #1, #19, ...

........................................................................
.............................. CYCLE   41 ..............................
........................................................................

 iter      E             dE          RMSdq      gap      omega  full diag
   1   -103.9699750 -0.103970E+03  0.163E-02    1.68       0.0  T
   2   -103.9699753 -0.305300E-06  0.941E-03    1.68       1.3  T
   3   -103.9699753  0.983972E-08  0.155E-03    1.68       8.0  T
   4   -103.9699753 -0.400415E-07  0.621E-04    1.68      19.8  T
   5   -103.9699754 -0.122397E-07  0.287E-04    1.68      42.9  T
     SCC iter.                  ...        0 min,  0.025 sec
     gradient                   ...        0 min,  0.058 sec
 * total energy  :  -102.6750521 Eh     change       -0.2603309E-04 Eh
   gradient norm :     0.0023073 Eh/α   predicted    -0.2088940E-04 ( -19.76%)
   displ. norm   :     0.0508828 α      lambda       -0.1413524E-04
   maximum displ.:     0.0231954 α      in ANC's #10, #5, #18, ...

........................................................................
.............................. CYCLE   42 ..............................
........................................................................

 iter      E             dE          RMSdq      gap      omega  full diag
   1   -103.9706030 -0.103971E+03  0.777E-03    1.68       0.0  T
   2   -103.9706031 -0.103557E-06  0.446E-03    1.68       2.8  T
   3   -103.9706031  0.199926E-07  0.103E-03    1.68      12.0  T
   4   -103.9706031 -0.302429E-07  0.370E-04    1.68      33.3  T
   5   -103.9706031 -0.578954E-08  0.147E-04    1.68      83.6  T
     SCC iter.                  ...        0 min,  0.025 sec
     gradient                   ...        0 min,  0.057 sec
 * total energy  :  -102.6750623 Eh     change       -0.1021051E-04 Eh
   gradient norm :     0.0011260 Eh/α   predicted    -0.7087597E-05 ( -30.59%)
   displ. norm   :     0.1010338 α      lambda       -0.1032221E-04
   maximum displ.:     0.0381973 α      in ANC's #1, #9, #7, ...
 * RMSD in coord.:     0.3827878 α      energy gain  -0.5030214E-03 Eh

generating ANC from exact Hessian ...
Using Lindh-Hessian (1995)
 Shifting diagonal of input Hessian by    9.9050330252004586E-003
 Lowest  eigenvalues of input Hessian
    0.000000    0.000000    0.000000    0.000000    0.000000    0.000000
    0.010000    0.010043    0.010131    0.010501    0.010679    0.011011
    0.011213    0.011574    0.011793    0.012204    0.012511    0.012876
 Highest eigenvalues
    2.099183    2.202112    2.358960    2.434140    2.715515    3.585741


........................................................................
.............................. CYCLE   43 ..............................
........................................................................

 iter      E             dE          RMSdq      gap      omega  full diag
   1   -103.9711730 -0.103971E+03  0.148E-02    1.67       0.0  T
   2   -103.9711732 -0.242956E-06  0.862E-03    1.67       1.4  T
   3   -103.9711731  0.140668E-06  0.190E-03    1.67       6.5  T
   4   -103.9711733 -0.189387E-06  0.568E-04    1.67      21.7  T
   5   -103.9711733 -0.126281E-07  0.236E-04    1.67      52.2  T
     SCC iter.                  ...        0 min,  0.025 sec
     gradient                   ...        0 min,  0.058 sec
 * total energy  :  -102.6750712 Eh     change       -0.8876988E-05 Eh
   gradient norm :     0.0009213 Eh/α   predicted     0.0000000E+00 (-100.00%)
   displ. norm   :     0.0234374 α      lambda       -0.8712319E-06
   maximum displ.:     0.0115736 α      in ANC's #18, #4, #8, ...

........................................................................
.............................. CYCLE   44 ..............................
........................................................................

 iter      E             dE          RMSdq      gap      omega  full diag
   1   -103.9708999 -0.103971E+03  0.447E-03    1.68       0.0  T
   2   -103.9708999 -0.228447E-07  0.260E-03    1.67       4.7  T
   3   -103.9708999  0.132759E-07  0.552E-04    1.68      22.3  T
   4   -103.9708999 -0.169309E-07  0.184E-04    1.67      66.8  T
     SCC iter.                  ...        0 min,  0.020 sec
     gradient                   ...        0 min,  0.061 sec
 * total energy  :  -102.6750776 Eh     change       -0.6426510E-05 Eh
   gradient norm :     0.0004055 Eh/α   predicted    -0.2570912E-05 ( -60.00%)
   displ. norm   :     0.1026322 α      lambda       -0.1582417E-04
   maximum displ.:     0.0516201 α      in ANC's #18, #4, #8, ...

........................................................................
.............................. CYCLE   45 ..............................
........................................................................

 iter      E             dE          RMSdq      gap      omega  full diag
   1   -103.9704481 -0.103970E+03  0.167E-02    1.68       0.0  T
   2   -103.9704483 -0.158362E-06  0.983E-03    1.68       1.3  T
   3   -103.9704481  0.244238E-06  0.202E-03    1.68       6.1  T
   4   -103.9704484 -0.297908E-06  0.541E-04    1.68      22.7  T
   5   -103.9704484 -0.850997E-08  0.230E-04    1.68      53.5  T
     SCC iter.                  ...        0 min,  0.025 sec
     gradient                   ...        0 min,  0.072 sec
 * total energy  :  -102.6750940 Eh     change       -0.1640096E-04 Eh
   gradient norm :     0.0016981 Eh/α   predicted    -0.7959628E-05 ( -51.47%)
   displ. norm   :     0.1016786 α      lambda       -0.1042948E-04
   maximum displ.:     0.0515453 α      in ANC's #18, #4, #8, ...

........................................................................
.............................. CYCLE   46 ..............................
........................................................................

 iter      E             dE          RMSdq      gap      omega  full diag
   1   -103.9702886 -0.103970E+03  0.151E-02    1.68       0.0  T
   2   -103.9702887 -0.830749E-07  0.891E-03    1.67       1.4  T
   3   -103.9702886  0.112551E-06  0.141E-03    1.68       8.7  T
   4   -103.9702887 -0.141833E-06  0.418E-04    1.67      29.4  T
   5   -103.9702887 -0.487228E-08  0.176E-04    1.68      69.8  T
     SCC iter.                  ...        0 min,  0.025 sec
     gradient                   ...        0 min,  0.060 sec
 * total energy  :  -102.6751059 Eh     change       -0.1191849E-04 Eh
   gradient norm :     0.0021519 Eh/α   predicted    -0.5311376E-05 ( -55.44%)
   displ. norm   :     0.0870506 α      lambda       -0.1430025E-04
   maximum displ.:     0.0441111 α      in ANC's #18, #4, #8, ...

........................................................................
.............................. CYCLE   47 ..............................
........................................................................

 iter      E             dE          RMSdq      gap      omega  full diag
   1   -103.9704033 -0.103970E+03  0.119E-02    1.67       0.0  T
   2   -103.9704033 -0.458189E-07  0.709E-03    1.67       1.7  T
   3   -103.9704033  0.276721E-07  0.846E-04    1.67      14.6  T
   4   -103.9704033 -0.398260E-07  0.302E-04    1.67      40.8  T
     SCC iter.                  ...        0 min,  0.020 sec
     gradient                   ...        0 min,  0.073 sec
 * total energy  :  -102.6751180 Eh     change       -0.1204686E-04 Eh
   gradient norm :     0.0019025 Eh/α   predicted    -0.7204711E-05 ( -40.19%)
   displ. norm   :     0.2695344 α      lambda       -0.2823830E-04
   maximum displ.:     0.1373448 α      in ANC's #18, #4, #8, ...

........................................................................
.............................. CYCLE   48 ..............................
........................................................................

 iter      E             dE          RMSdq      gap      omega  full diag
   1   -103.9701682 -0.103970E+03  0.356E-02    1.67       0.0  T
   2   -103.9701685 -0.337744E-06  0.212E-02    1.67       1.0  T
   3   -103.9701683  0.169465E-06  0.230E-03    1.67       5.4  T
   4   -103.9701686 -0.271678E-06  0.845E-04    1.67      14.6  T
   5   -103.9701686 -0.190093E-07  0.388E-04    1.67      31.7  T
     SCC iter.                  ...        0 min,  0.025 sec
     gradient                   ...        0 min,  0.061 sec
 * total energy  :  -102.6751413 Eh     change       -0.2331016E-04 Eh
   gradient norm :     0.0024743 Eh/α   predicted    -0.1458054E-04 ( -37.45%)
   displ. norm   :     0.0467812 α      lambda       -0.2139033E-04
   maximum displ.:     0.0265873 α      in ANC's #4, #18, #1, ...

........................................................................
.............................. CYCLE   49 ..............................
........................................................................

 iter      E             dE          RMSdq      gap      omega  full diag
   1   -103.9710222 -0.103971E+03  0.735E-03    1.67       0.0  T
   2   -103.9710223 -0.148191E-06  0.422E-03    1.67       2.9  T
   3   -103.9710223  0.274836E-07  0.116E-03    1.67      10.6  T
   4   -103.9710223 -0.384803E-07  0.400E-04    1.67      30.8  T
   5   -103.9710224 -0.879356E-08  0.154E-04    1.67      79.8  T
     SCC iter.                  ...        0 min,  0.040 sec
     gradient                   ...        0 min,  0.057 sec
 * total energy  :  -102.6751565 Eh     change       -0.1516323E-04 Eh
   gradient norm :     0.0008223 Eh/α   predicted    -0.1076601E-04 ( -29.00%)
   displ. norm   :     0.2327249 α      lambda       -0.2095353E-04
   maximum displ.:     0.1238991 α      in ANC's #4, #18, #1, ...

........................................................................
.............................. CYCLE   50 ..............................
........................................................................

 iter      E             dE          RMSdq      gap      omega  full diag
   1   -103.9709967 -0.103971E+03  0.290E-02    1.67       0.0  T
   2   -103.9709969 -0.214058E-06  0.173E-02    1.67       1.0  T
   3   -103.9709966  0.300817E-06  0.236E-03    1.67       5.2  T
   4   -103.9709970 -0.394659E-06  0.645E-04    1.67      19.1  T
   5   -103.9709970 -0.841364E-08  0.340E-04    1.67      36.2  T
     SCC iter.                  ...        0 min,  0.034 sec
     gradient                   ...        0 min,  0.058 sec
 * total energy  :  -102.6751791 Eh     change       -0.2262735E-04 Eh
   gradient norm :     0.0012889 Eh/α   predicted    -0.1074338E-04 ( -52.52%)
   displ. norm   :     0.1762052 α      lambda       -0.1467761E-04
   maximum displ.:     0.0958750 α      in ANC's #4, #18, #1, ...

........................................................................
.............................. CYCLE   51 ..............................
........................................................................

 iter      E             dE          RMSdq      gap      omega  full diag
   1   -103.9708105 -0.103971E+03  0.220E-02    1.67       0.0  T
   2   -103.9708107 -0.114108E-06  0.131E-02    1.67       1.0  T
   3   -103.9708106  0.938244E-07  0.148E-03    1.67       8.3  T
   4   -103.9708107 -0.145772E-06  0.489E-04    1.67      25.1  T
   5   -103.9708107 -0.265638E-08  0.234E-04    1.67      52.6  T
     SCC iter.                  ...        0 min,  0.025 sec
     gradient                   ...        0 min,  0.072 sec
 * total energy  :  -102.6751939 Eh     change       -0.1482150E-04 Eh
   gradient norm :     0.0015050 Eh/α   predicted    -0.7440484E-05 ( -49.80%)
   displ. norm   :     0.0975399 α      lambda       -0.1364955E-04
   maximum displ.:     0.0457609 α      in ANC's #4, #19, #18, ...

........................................................................
.............................. CYCLE   52 ..............................
........................................................................

 iter      E             dE          RMSdq      gap      omega  full diag
   1   -103.9716521 -0.103972E+03  0.157E-02    1.68       0.0  T
   2   -103.9716524 -0.314429E-06  0.918E-03    1.68       1.3  T
   3   -103.9716524  0.323175E-07  0.157E-03    1.68       7.9  T
   4   -103.9716525 -0.639711E-07  0.583E-04    1.67      21.1  T
   5   -103.9716525 -0.128333E-07  0.268E-04    1.68      45.9  T
     SCC iter.                  ...        0 min,  0.025 sec
     gradient                   ...        0 min,  0.058 sec
 * total energy  :  -102.6751993 Eh     change       -0.5428364E-05 Eh
   gradient norm :     0.0018516 Eh/α   predicted    -0.6853773E-05 (  26.26%)
   displ. norm   :     0.2223908 α      lambda       -0.1666628E-04
   maximum displ.:     0.1221746 α      in ANC's #4, #18, #1, ...

........................................................................
.............................. CYCLE   53 ..............................
........................................................................

 iter      E             dE          RMSdq      gap      omega  full diag
   1   -103.9698881 -0.103970E+03  0.288E-02    1.68       0.0  T
   2   -103.9698887 -0.615354E-06  0.171E-02    1.68       1.0  T
   3   -103.9698887 -0.266569E-07  0.163E-03    1.67       7.6  T
   4   -103.9698888 -0.468728E-07  0.752E-04    1.67      16.4  T
   5   -103.9698888 -0.150540E-07  0.386E-04    1.67      31.9  T
     SCC iter.                  ...        0 min,  0.025 sec
     gradient                   ...        0 min,  0.071 sec
 * total energy  :  -102.6752000 Eh     change       -0.6282447E-06 Eh
   gradient norm :     0.0029714 Eh/α   predicted    -0.8555652E-05 (1261.83%)
   displ. norm   :     0.1002853 α      lambda       -0.2169163E-04
   maximum displ.:     0.0539374 α      in ANC's #4, #18, #1, ...

........................................................................
.............................. CYCLE   54 ..............................
........................................................................

 iter      E             dE          RMSdq      gap      omega  full diag
   1   -103.9707549 -0.103971E+03  0.139E-02    1.67       0.0  T
   2   -103.9707550 -0.144540E-06  0.825E-03    1.67       1.5  T
   3   -103.9707550  0.548192E-08  0.875E-04    1.67      14.1  T
   4   -103.9707550 -0.201736E-07  0.369E-04    1.67      33.4  T
     SCC iter.                  ...        0 min,  0.020 sec
     gradient                   ...        0 min,  0.078 sec
 * total energy  :  -102.6752120 Eh     change       -0.1201271E-04 Eh
   gradient norm :     0.0010440 Eh/α   predicted    -0.1095570E-04 (  -8.80%)
   displ. norm   :     0.0260559 α      lambda       -0.3943077E-05
   maximum displ.:     0.0097679 α      in ANC's #14, #8, #10, ...

........................................................................
.............................. CYCLE   55 ..............................
........................................................................

 iter      E             dE          RMSdq      gap      omega  full diag
   1   -103.9710052 -0.103971E+03  0.450E-03    1.67       0.0  T
   2   -103.9710052 -0.388925E-07  0.258E-03    1.67       4.8  T
   3   -103.9710052  0.446852E-07  0.997E-04    1.67      12.3  T
   4   -103.9710052 -0.572273E-07  0.206E-04    1.67      59.7  T
     SCC iter.                  ...        0 min,  0.020 sec
     gradient                   ...        0 min,  0.084 sec
 * total energy  :  -102.6752165 Eh     change       -0.4501306E-05 Eh
   gradient norm :     0.0003965 Eh/α   predicted    -0.1974156E-05 ( -56.14%)
   displ. norm   :     0.0761503 α      lambda       -0.5544803E-05
   maximum displ.:     0.0340194 α      in ANC's #4, #1, #19, ...

   *** GEOMETRY OPTIMIZATION CONVERGED AFTER 55 ITERATIONS ***

------------------------------------------------------------------------
 total energy gain   :        -0.0204066 Eh      -12.8053 kcal/mol
 total RMSD          :         0.6157944 a0        0.3259 Å
 total power (kW/mol):        -0.9741351 (step)   -8.5141 (real)
------------------------------------------------------------------------

 ANCopt (total)                0 d,  0 h,  0 min,  6.293 sec
 optimizer setup                ...        0 min,  0.000 sec (  0.001%)
 model hessian                  ...        0 min,  0.113 sec (  1.789%)
 ANC generation                 ...        0 min,  0.011 sec (  0.179%)
 coordinate transformation      ...        0 min,  0.001 sec (  0.015%)
 single point calculation       ...        0 min,  6.147 sec ( 97.678%)
 optimization log               ...        0 min,  0.011 sec (  0.179%)
 hessian update                 ...        0 min,  0.001 sec (  0.021%)
 rational function              ...        0 min,  0.006 sec (  0.090%)

================
 final structure:
================
66
 xtb: 6.7.1 (edcfbbe)
C           -5.84760150747961        2.71796497700008        2.47296857999128
C           -5.03256729841335        1.47286174964789        2.79620247482641
C           -5.25773418616627        0.36849076428066        1.75247336066202
C           -4.78930797044501        0.77268242658281        0.40157228836812
N           -5.54567913804103        1.09612547196918       -0.62557823480770
C           -4.72922677006842        1.41275620505043       -1.65712513767739
C           -5.23494813683211        1.83620026347523       -2.98473819592455
C           -3.41103512645581        1.28031256714954       -1.25532882375238
N           -3.48519736632973        0.87075159385085        0.06601617936523
N           -2.35427534318751        0.64467019990701        0.79702222579482
C           -1.15381559422968        0.78273955339390        0.17290116906473
C            0.06713601094116        0.51211756207336        0.95167297710027
C            0.11366219636771       -0.25342809139064        2.13584262275994
C            1.34416290289482       -0.49258381600957        2.74586511272798
C            2.51043507002569        0.02306026752950        2.21053638457377
C            2.45714028276524        0.79507298249075        1.06707187020354
S            3.98032516188667        1.43033606958464        0.35336268583994
O            5.02544568166603        1.23863667089611        1.31634621046971
N            4.30280286561265        0.43494467455414       -0.92900606659068
C            3.43810373332874        0.53085779838888       -2.08046322630052
C            4.14507166347692       -0.10447789599134       -3.27468842478364
N            4.46110772764317       -1.49197347108244       -2.97656989105490
C            5.33672709179257       -1.55475291929110       -1.81938812009467
C            4.64238328738747       -0.92920962220579       -0.61249118657883
C            5.01511380602940       -2.18093789033664       -4.13182146797347
C            4.96673236463484       -3.69647696455827       -3.97238406246286
O            3.73968230983089        2.74281239961675       -0.15981672121508
C            1.25424567160569        1.03526726670572        0.44243107573823
O           -1.06110425517561       -0.73203222377992        2.63065097938345
C           -1.06948031668236       -1.54291708807490        3.79881906967427
C           -2.51792535785285       -1.90668362028503        4.08604363206057
N           -1.01642641523142        1.15970373347484       -1.04729566960079
C           -2.10370685006407        1.43504036911784       -1.87809592488796
O           -1.93544636148621        1.76347898173832       -3.03161480051699
H           -6.90979239019533        2.48749963733395        2.48126821432960
H           -5.65598176537934        3.50032287253769        3.20340672455754
H           -5.59275916000541        3.09391075398821        1.48531495370693
H           -3.97182869071925        1.73586478124096        2.83965870846540
H           -5.32155760449127        1.09116849875328        3.77821725886101
H           -4.74077852713725       -0.54586836785894        2.06200763381115
H           -6.32329680242048        0.15266113100324        1.67821231571821
H           -5.72828489909774        2.80403734538109       -2.90474627415536
H           -5.96555593810849        1.11834292937394       -3.35195425921698
H           -4.40323775471005        1.91250915254533       -3.67932671163122
H           -2.44210419951633        0.21808839311035        1.71023077206296
H            1.39965469014772       -1.08237460705862        3.64619420069318
H            3.46582113757713       -0.14944048522130        2.67962650454924
H            3.24483838153230        1.58782934181536       -2.25982139936956
H            2.48837622525852        0.00488914444030       -1.90422950235136
H            3.47914135017975       -0.07413954216977       -4.13931240685124
H            5.05456717352542        0.47716070920696       -3.50431061558807
H            5.56003855098885       -2.59878199687612       -1.59791629467774
H            6.28454221565876       -1.01837953098195       -2.00289317365973
H            3.73905743424644       -1.51166710887308       -0.37191326248031
H            5.30625578541438       -0.90821461669879        0.25182966015605
H            4.40333098426515       -1.90511841184997       -4.99409277583832
H            6.05123921818632       -1.85885884480495       -4.33696943120578
H            5.20386608963375       -4.17047481234508       -4.92139091681435
H            5.68090219057094       -4.04671940960629       -3.23218824641491
H            3.96928457605088       -3.99983216388374       -3.66726786261860
H            1.20476960707204        1.64355384804918       -0.44558668459349
H           -0.64362169626788       -0.98642389118448        4.64247291494649
H           -0.47567872334132       -2.44862227803151        3.62748853401207
H           -2.56698102744516       -2.54027127912941        4.96629394597440
H           -3.10442100094447       -1.00926668722310        4.26816520985013
H           -2.94440526429893       -2.44459545044622        3.24293932138002

 Bond Distances (Angstroems)
 ---------------------------
[...]
          omp threads                :                     1


           -------------------------------------------------
          |                 G F N 2 - x T B                 |
           -------------------------------------------------

        Reference                      10.1021/acs.jctc.8b01176
      * Hamiltonian:
        H0-scaling (s, p, d)           1.850000    2.230000    2.230000
        zeta-weighting                 0.500000
      * Dispersion:
        s8                             2.700000
        a1                             0.520000
        a2                             5.000000
        s9                             5.000000
      * Repulsion:
        kExp                           1.500000    1.000000
        rExp                           1.000000
      * Coulomb:
        alpha                          2.000000
        third order                    shell-resolved
        anisotropic                    true
        a3                             3.000000
        a5                             4.000000
        cn-shift                       1.200000
        cn-exp                         4.000000
        max-rad                        5.000000


          ...................................................
          :                      SETUP                      :
          :.................................................:
          :  # basis functions                 174          :
          :  # atomic orbitals                 173          :
          :  # shells                          101          :
          :  # electrons                       184          :
          :  max. iterations                   250          :
          :  Hamiltonian                  GFN2-xTB          :
          :  restarted?                      false          :
          :  GBSA solvation                  false          :
          :  PC potential                    false          :
          :  electronic temp.          300.0000000     K    :
          :  accuracy                    1.0000000          :
          :  -> integral cutoff          0.2500000E+02      :
          :  -> integral neglect         0.1000000E-07      :
          :  -> SCF convergence          0.1000000E-05 Eh   :
          :  -> wf. convergence          0.1000000E-03 e    :
          :  Broyden damping             0.4000000          :
          :  net charge                          0          :
          :  unpaired electrons                  2          :
          ...................................................

 iter      E             dE          RMSdq      gap      omega  full diag
   1   -103.5432313 -0.103543E+03  0.413E+00    0.76       0.0  T
   2   -103.7506502 -0.207419E+00  0.282E+00    0.51       1.0  T
   3   -103.6439971  0.106653E+00  0.197E+00    0.69       1.0  T
   4   -103.7143795 -0.703824E-01  0.145E+00    0.52       1.0  T
   5   -103.8087358 -0.943563E-01  0.894E-01    0.92       1.0  T
   6   -103.8297697 -0.210339E-01  0.704E-01    0.66       1.0  T
   7   -103.8577022 -0.279324E-01  0.444E-01    0.83       1.0  T
   8   -103.8727007 -0.149986E-01  0.296E-01    0.73       1.0  T
   9   -103.8780647 -0.536402E-02  0.161E-01    0.75       1.0  T
  10   -103.8662958  0.117689E-01  0.277E-01    0.77       1.0  T
  11   -103.8431612  0.231346E-01  0.468E-01    0.73       1.0  T
  12   -103.8734285 -0.302673E-01  0.207E-01    0.72       1.0  T
  13   -103.8789513 -0.552277E-02  0.332E-02    0.75       1.0  T
  14   -103.8764321  0.251915E-02  0.119E-01    0.74       1.0  T
  15   -103.8766760 -0.243863E-03  0.114E-01    0.74       1.0  T
  16   -103.8789343 -0.225827E-02  0.267E-02    0.74       1.0  T
  17   -103.8788917  0.425227E-04  0.281E-02    0.74       1.0  T
  18   -103.8790333 -0.141566E-03  0.287E-03    0.74       4.3  T
  19   -103.8790308  0.250124E-05  0.417E-03    0.74       2.9  T
  20   -103.8790339 -0.306390E-05  0.126E-03    0.74       9.8  T
  21   -103.8790341 -0.221392E-06  0.423E-04    0.74      29.1  T
  22   -103.8790341 -0.208886E-07  0.193E-04    0.74      63.9  T

   *** convergence criteria satisfied after 22 iterations ***

         #    Occupation            Energy/Eh            Energy/eV
      -------------------------------------------------------------
         1        2.0000           -0.7649726             -20.8160
       ...           ...                  ...                  ...
        87        2.0000           -0.4031217             -10.9695
        88        2.0000           -0.3941553             -10.7255
        89        2.0000           -0.3908232             -10.6348
        90        1.9603           -0.3841015             -10.4519
        91        1.8255           -0.3825522             -10.4098
        92        1.2143           -0.3798417             -10.3360
        93        1.0000           -0.2717013              -7.3934 (HOMO)
        94        0.0000           -0.2445555              -6.6547 (LUMO)
        95                         -0.2325743              -6.3287
        96                         -0.2085401              -5.6747
        97                         -0.1811267              -4.9287
        98                         -0.1243847              -3.3847
       ...                                ...                  ...
       173                          1.2505892              34.0303
      -------------------------------------------------------------
                  HL-Gap            0.0271458 Eh            0.7387 eV
             Fermi-level           -0.3196022 Eh           -8.6968 eV

 transition dipole moment (au) for excitation:          92          93
     X       Y       Z   
   0.1990   0.0360   0.0378  total (au/Debye):    0.206   0.523
 dE (eV)             :    2.943
 oscillator strength :  0.43143E-02

 SCC (total)                   0 d,  0 h,  0 min,  0.307 sec
 SCC setup                      ...        0 min,  0.001 sec (  0.244%)
 Dispersion                     ...        0 min,  0.001 sec (  0.341%)
 classical contributions        ...        0 min,  0.000 sec (  0.112%)
 integral evaluation            ...        0 min,  0.016 sec (  5.064%)
 iterations                     ...        0 min,  0.175 sec ( 56.986%)
 molecular gradient             ...        0 min,  0.101 sec ( 32.922%)
 printout                       ...        0 min,  0.013 sec (  4.329%)

         :::::::::::::::::::::::::::::::::::::::::::::::::::::
         ::                     SUMMARY                     ::
         :::::::::::::::::::::::::::::::::::::::::::::::::::::
         :: total energy            -102.583245398244 Eh    ::
         :: gradient norm              0.130796424033 Eh/a0 ::
         :: HOMO-LUMO gap              0.738675754304 eV    ::
         ::.................................................::
         :: SCC energy              -103.878292565183 Eh    ::
         :: -> isotropic ES            0.132305513914 Eh    ::
         :: -> anisotropic ES          0.002797100695 Eh    ::
         :: -> anisotropic XC          0.040199910774 Eh    ::
         :: -> dispersion             -0.076422764574 Eh    ::
         :: repulsion energy           1.295047166938 Eh    ::
         :: add. restraining           0.000000000000 Eh    ::
         :: total charge              -0.000000000002 e     ::
         :::::::::::::::::::::::::::::::::::::::::::::::::::::

           -------------------------------------------------
          |                Property Printout                |
           -------------------------------------------------

    * Orbital Energies and Occupations

         #    Occupation            Energy/Eh            Energy/eV
      -------------------------------------------------------------
         1        2.0000           -0.7649726             -20.8160
       ...           ...                  ...                  ...
        81        2.0000           -0.4331458             -11.7865
        82        2.0000           -0.4281262             -11.6499
        83        2.0000           -0.4182952             -11.3824
        84        2.0000           -0.4151655             -11.2972
        85        2.0000           -0.4093927             -11.1401
        86        2.0000           -0.4086280             -11.1193
        87        2.0000           -0.4031217             -10.9695
        88        2.0000           -0.3941553             -10.7255
        89        2.0000           -0.3908232             -10.6348
        90        1.9603           -0.3841015             -10.4519
        91        1.8255           -0.3825522             -10.4098
        92        1.2143           -0.3798417             -10.3360
        93        1.0000           -0.2717013              -7.3934 (HOMO)
        94        0.0000           -0.2445555              -6.6547 (LUMO)
        95                         -0.2325743              -6.3287
        96                         -0.2085401              -5.6747
        97                         -0.1811267              -4.9287
        98                         -0.1243847              -3.3847
        99                         -0.1088388              -2.9617
       100                         -0.0953277              -2.5940
       101                         -0.0683886              -1.8609
       102                         -0.0591170              -1.6087
       103                         -0.0458139              -1.2467
       104                         -0.0303333              -0.8254
       ...                                ...                  ...
       173                          1.2505892              34.0303
      -------------------------------------------------------------
                  HL-Gap            0.0271458 Eh            0.7387 eV
             Fermi-level           -0.3196022 Eh           -8.6968 eV

     #   Z          covCN         q      C6AA      α(0)
     1   6 C        3.752    -0.107    22.603     6.780
     2   6 C        3.801    -0.051    21.485     6.599
     3   6 C        3.805    -0.070    21.829     6.651
     4   6 C        3.128     0.107    25.451     8.260
     5   7 N        1.927    -0.266    27.757     7.812
     6   6 C        3.149     0.076    26.041     8.347
     7   6 C        3.755    -0.116    22.772     6.804
     8   6 C        3.063    -0.013    28.284     8.721
     9   7 N        2.950     0.054    20.295     6.691
    10   7 N        2.768    -0.114    23.489     7.198
    11   6 C        2.856     0.123    25.287     8.242
    12   6 C        2.981    -0.039    28.953     8.826
    13   6 C        2.856     0.125    25.246     8.235
    14   6 C        2.918    -0.068    29.706     8.938
    15   6 C        2.955    -0.055    29.357     8.887
    16   6 C        2.965    -0.103    30.595     9.073
    17  16 S        3.877     1.077   104.483    17.204
    18   8 O        0.860    -0.556    25.070     6.713
    19   7 N        2.739    -0.256    26.637     7.665
    20   6 C        3.845     0.003    20.504     6.441
    21   6 C        3.772     0.002    20.572     6.463
    22   7 N        2.730    -0.136    23.955     7.269
    23   6 C        3.770     0.003    20.564     6.462
    24   6 C        3.858     0.005    20.461     6.433
    25   6 C        3.757     0.004    20.561     6.465
    26   6 C        3.752    -0.114    22.741     6.801
    27   8 O        0.860    -0.550    24.910     6.692
    28   6 C        2.965    -0.045    29.114     8.850
    29   8 O        1.704    -0.292    18.852     5.862
    30   6 C        3.685     0.084    19.377     6.302
    31   6 C        3.751    -0.114    22.736     6.800
    32   7 N        1.844    -0.241    27.142     7.721
    33   6 C        2.777     0.267    22.498     7.769
    34   8 O        0.859    -0.380    21.280     6.185
    35   1 H        0.925     0.044     2.395     2.420
    36   1 H        0.925     0.040     2.452     2.449
    37   1 H        0.925     0.043     2.403     2.424
    38   1 H        0.924     0.031     2.568     2.506
    39   1 H        0.924     0.037     2.496     2.471
    40   1 H        0.924     0.040     2.455     2.450
    41   1 H        0.925     0.071     2.072     2.251
    42   1 H        0.925     0.065     2.139     2.287
    43   1 H        0.925     0.067     2.120     2.277
    44   1 H        0.925     0.073     2.051     2.239
    45   1 H        0.860     0.209     1.059     1.612
    46   1 H        0.926     0.039     2.456     2.451
    47   1 H        0.926     0.049     2.330     2.387
    48   1 H        0.925     0.074     2.040     2.233
    49   1 H        0.923     0.049     2.333     2.389
    50   1 H        0.924     0.058     2.228     2.334
    51   1 H        0.923     0.041     2.435     2.441
    52   1 H        0.924     0.057     2.229     2.335
    53   1 H        0.923     0.040     2.452     2.449
    54   1 H        0.923     0.038     2.481     2.463
    55   1 H        0.925     0.069     2.102     2.267
    56   1 H        0.924     0.048     2.351     2.398
    57   1 H        0.923     0.025     2.657     2.549
    58   1 H        0.925     0.050     2.326     2.385
    59   1 H        0.925     0.042     2.417     2.431
    60   1 H        0.925     0.055     2.257     2.349
    61   1 H        0.926     0.067     2.122     2.278
    62   1 H        0.924     0.038     2.481     2.463
    63   1 H        0.924     0.037     2.487     2.466
    64   1 H        0.925     0.053     2.280     2.361
    65   1 H        0.925     0.053     2.284     2.363
    66   1 H        0.925     0.054     2.276     2.359

 Mol. C6AA /au·bohr⁶  :      48277.015736
 Mol. C8AA /au·bohr⁸  :    1143857.918274
 Mol. α(0) /au        :        335.701814


Wiberg/Mayer (AO) data.
largest (>0.10) Wiberg bond orders for each atom

 ---------------------------------------------------------------------------
     #   Z sym  total        # sym  WBO       # sym  WBO       # sym  WBO
 ---------------------------------------------------------------------------
     1   6 C    3.995 --     2 C    1.021    35 H    0.987    36 H    0.987
                            37 H    0.986
     2   6 C    3.993 --     1 C    1.021     3 C    0.985    39 H    0.977
                            38 H    0.977
     3   6 C    3.992 --     4 C    1.017     2 C    0.985    41 H    0.969
                            40 H    0.962
     4   6 C    3.928 --     5 N    1.428     9 N    1.241     3 C    1.017
     5   7 N    3.040 --     4 C    1.428     6 C    1.296
     6   6 C    3.926 --     8 C    1.407     5 N    1.296     7 C    1.038
     7   6 C    3.987 --     6 C    1.038    44 H    0.976    43 H    0.965
                            42 H    0.962
     8   6 C    3.842 --     6 C    1.407     9 N    1.124    33 C    0.994
     9   7 N    3.634 --     4 C    1.241     8 C    1.124    10 N    1.034
    10   7 N    3.363 --    11 C    1.118     9 N    1.034    45 H    0.898
    11   6 C    3.904 --    32 N    1.402    12 C    1.137    10 N    1.118
    12   6 C    3.945 --    28 C    1.304    13 C    1.233    11 C    1.137
    13   6 C    3.910 --    14 C    1.422    12 C    1.233    29 O    1.045
    14   6 C    3.971 --    13 C    1.422    15 C    1.382    46 H    0.964
    15   6 C    3.913 --    14 C    1.382    16 C    1.369    47 H    0.966
    16   6 C    3.938 --    28 C    1.460    15 C    1.369    17 S    0.729
    17  16 S    5.028 --    27 O    1.647    18 O    1.638    19 N    0.934
                            16 C    0.729
    18   8 O    1.932 --    17 S    1.638    27 O    0.108
    19   7 N    3.211 --    24 C    0.998    20 C    0.996    17 S    0.934
    20   6 C    3.963 --    19 N    0.996    21 C    0.991    48 H    0.967
                            49 H    0.959
    21   6 C    3.975 --    22 N    1.006    20 C    0.991    50 H    0.969
                            51 H    0.956
    22   7 N    3.106 --    23 C    1.007    21 C    1.006    25 C    0.995
    23   6 C    3.977 --    22 N    1.007    24 C    0.992    52 H    0.967
                            53 H    0.955
    24   6 C    3.968 --    19 N    0.998    23 C    0.992    55 H    0.968
                            54 H    0.962
    25   6 C    3.974 --    26 C    1.015    22 N    0.995    56 H    0.972
                            57 H    0.960
    26   6 C    3.992 --    25 C    1.015    60 H    0.986    58 H    0.985
                            59 H    0.984
    27   8 O    1.943 --    17 S    1.647    18 O    0.108
    28   6 C    3.969 --    16 C    1.460    12 C    1.304    61 H    0.956
    29   8 O    2.223 --    13 C    1.045    30 C    0.955
    30   6 C    3.943 --    31 C    1.016    63 H    0.969    62 H    0.968
                            29 O    0.955
    31   6 C    3.992 --    30 C    1.016    66 H    0.986    65 H    0.985
                            64 H    0.984
    32   7 N    3.051 --    11 C    1.402    33 C    1.166    34 O    0.199
    33   6 C    3.902 --    34 O    1.588    32 N    1.166     8 C    0.994
    34   8 O    2.009 --    33 C    1.588    32 N    0.199
    35   1 H    0.998 --     1 C    0.987
    36   1 H    0.998 --     1 C    0.987
    37   1 H    0.998 --     1 C    0.986
    38   1 H    0.999 --     2 C    0.977
    39   1 H    0.998 --     2 C    0.977
    40   1 H    0.997 --     3 C    0.962
    41   1 H    0.994 --     3 C    0.969
    42   1 H    0.990 --     7 C    0.962
    43   1 H    0.989 --     7 C    0.965
    44   1 H    0.993 --     7 C    0.976
    45   1 H    0.955 --    10 N    0.898
    46   1 H    0.997 --    14 C    0.964
    47   1 H    0.997 --    15 C    0.966
    48   1 H    0.994 --    20 C    0.967
    49   1 H    0.990 --    20 C    0.959
    50   1 H    0.995 --    21 C    0.969
    51   1 H    0.982 --    21 C    0.956
    52   1 H    0.995 --    23 C    0.967
    53   1 H    0.983 --    23 C    0.955
    54   1 H    0.991 --    24 C    0.962
    55   1 H    0.995 --    24 C    0.968
    56   1 H    0.997 --    25 C    0.972
    57   1 H    0.986 --    25 C    0.960
    58   1 H    0.997 --    26 C    0.985
    59   1 H    0.998 --    26 C    0.984
    60   1 H    0.996 --    26 C    0.986
    61   1 H    0.994 --    28 C    0.956
    62   1 H    0.998 --    30 C    0.968
    63   1 H    0.998 --    30 C    0.969
    64   1 H    0.997 --    31 C    0.984
    65   1 H    0.997 --    31 C    0.985
    66   1 H    0.997 --    31 C    0.986
 ---------------------------------------------------------------------------

Topologies differ in total number of bonds
Writing topology from bond orders to xtbtopo.mol

molecular dipole:
                 x           y           z       tot (Debye)
 q only:       -1.009      -3.051       0.585
   full:       -0.658      -3.305       1.096       9.006
molecular quadrupole (traceless):
                xx          xy          yy          xz          yz          zz
 q only:        1.289     -28.350     -13.373     -40.186       4.579      12.084
  q+dip:       -0.071     -25.795     -14.116     -44.408       2.784      14.187
   full:       -3.031     -26.561     -11.357     -45.018       4.836      14.388


           -------------------------------------------------
          | TOTAL ENERGY             -102.583245398244 Eh   |
          | GRADIENT NORM               0.130796424033 Eh/α |
          | HOMO-LUMO GAP               0.738675754304 eV   |
           -------------------------------------------------

------------------------------------------------------------------------
 * finished run on 2025/05/15 at 16:35:40.310     
------------------------------------------------------------------------
 total:
 * wall-time:     0 d,  0 h,  0 min,  0.328 sec
 *  cpu-time:     0 d,  0 h,  0 min,  0.217 sec
 * ratio c/w:     0.661 speedup
 SCF:
 * wall-time:     0 d,  0 h,  0 min,  0.307 sec
 *  cpu-time:     0 d,  0 h,  0 min,  0.197 sec
 * ratio c/w:     0.642 speedup


