66
 energy: -102.675216488633 gnorm: 0.000397556693 xtb: 6.7.1 (edcfbbe)
C           -5.84760150747961        2.71796497700008        2.47296857999128
C           -5.03256729841335        1.47286174964789        2.79620247482641
C           -5.25773418616627        0.36849076428066        1.75247336066202
C           -4.78930797044501        0.77268242658281        0.40157228836812
N           -5.54567913804103        1.09612547196918       -0.62557823480770
C           -4.72922677006842        1.41275620505043       -1.65712513767739
C           -5.23494813683211        1.83620026347523       -2.98473819592455
C           -3.41103512645581        1.28031256714954       -1.25532882375238
N           -3.48519736632973        0.87075159385085        0.06601617936523
N           -2.35427534318751        0.64467019990701        0.79702222579482
C           -1.15381559422968        0.78273955339390        0.17290116906473
C            0.06713601094116        0.51211756207336        0.95167297710027
C            0.11366219636771       -0.25342809139064        2.13584262275994
C            1.34416290289482       -0.49258381600957        2.74586511272798
C            2.51043507002569        0.02306026752950        2.21053638457377
C            2.45714028276524        0.79507298249075        1.06707187020354
S            3.98032516188667        1.43033606958464        0.35336268583994
O            5.02544568166603        1.23863667089611        1.31634621046971
N            4.30280286561265        0.43494467455414       -0.92900606659068
C            3.43810373332874        0.53085779838888       -2.08046322630052
C            4.14507166347692       -0.10447789599134       -3.27468842478364
N            4.46110772764317       -1.49197347108244       -2.97656989105490
C            5.33672709179257       -1.55475291929110       -1.81938812009467
C            4.64238328738747       -0.92920962220579       -0.61249118657883
C            5.01511380602940       -2.18093789033664       -4.13182146797347
C            4.96673236463484       -3.69647696455827       -3.97238406246286
O            3.73968230983089        2.74281239961675       -0.15981672121508
C            1.25424567160569        1.03526726670572        0.44243107573823
O           -1.06110425517561       -0.73203222377992        2.63065097938345
C           -1.06948031668236       -1.54291708807490        3.79881906967427
C           -2.51792535785285       -1.90668362028503        4.08604363206057
N           -1.01642641523142        1.15970373347484       -1.04729566960079
C           -2.10370685006407        1.43504036911784       -1.87809592488796
O           -1.93544636148621        1.76347898173832       -3.03161480051699
H           -6.90979239019533        2.48749963733395        2.48126821432960
H           -5.65598176537934        3.50032287253769        3.20340672455754
H           -5.59275916000541        3.09391075398821        1.48531495370693
H           -3.97182869071925        1.73586478124096        2.83965870846540
H           -5.32155760449127        1.09116849875328        3.77821725886101
H           -4.74077852713725       -0.54586836785894        2.06200763381115
H           -6.32329680242048        0.15266113100324        1.67821231571821
H           -5.72828489909774        2.80403734538109       -2.90474627415536
H           -5.96555593810849        1.11834292937394       -3.35195425921698
H           -4.40323775471005        1.91250915254533       -3.67932671163122
H           -2.44210419951633        0.21808839311035        1.71023077206296
H            1.39965469014772       -1.08237460705862        3.64619420069318
H            3.46582113757713       -0.14944048522130        2.67962650454924
H            3.24483838153230        1.58782934181536       -2.25982139936956
H            2.48837622525852        0.00488914444030       -1.90422950235136
H            3.47914135017975       -0.07413954216977       -4.13931240685124
H            5.05456717352542        0.47716070920696       -3.50431061558807
H            5.56003855098885       -2.59878199687612       -1.59791629467774
H            6.28454221565876       -1.01837953098195       -2.00289317365973
H            3.73905743424644       -1.51166710887308       -0.37191326248031
H            5.30625578541438       -0.90821461669879        0.25182966015605
H            4.40333098426515       -1.90511841184997       -4.99409277583832
H            6.05123921818632       -1.85885884480495       -4.33696943120578
H            5.20386608963375       -4.17047481234508       -4.92139091681435
H            5.68090219057094       -4.04671940960629       -3.23218824641491
H            3.96928457605088       -3.99983216388374       -3.66726786261860
H            1.20476960707204        1.64355384804918       -0.44558668459349
H           -0.64362169626788       -0.98642389118448        4.64247291494649
H           -0.47567872334132       -2.44862227803151        3.62748853401207
H           -2.56698102744516       -2.54027127912941        4.96629394597440
H           -3.10442100094447       -1.00926668722310        4.26816520985013
H           -2.94440526429893       -2.44459545044622        3.24293932138002
