29
 energy: -55.285912840657 gnorm: 0.000472468742 xtb: 6.7.1 (edcfbbe)
O           -1.64054233527962        2.77583815401420        0.12675780314900
C           -1.67960433468193        1.50684218539380        0.72163292842993
C           -2.24338555647872        0.46487590062888       -0.25986807658626
C           -2.42064852756375       -0.92691692097818        0.35678657604668
C           -1.05946803837759       -1.60089195207032        0.08227522308787
C           -0.54039638042106       -0.83222589317711       -1.16771470505437
N            0.83011534736127       -0.42142523710446       -0.98209495344242
C            1.87749925990739       -0.51200901080869       -1.82659242211774
N            2.94575364550644        0.00027312509254       -1.27675021589390
C            2.51069730408935        0.41741356460592       -0.05680307896994
C            3.40512370021942        1.07606516503110        0.92823467674301
N            4.66820626747208        1.17521014260017        0.46136392948719
O            3.04420113849660        1.47259056407352        2.01277809645699
N            1.23476627771004        0.17145706643529        0.14309982439723
O           -1.36723642084955        0.27683815219264       -1.37176737321592
O           -1.13965209461262       -2.97049265021994       -0.11254646995780
O           -3.39891007056311       -1.69560072329076       -0.30654463909270
H           -1.07087435223655        2.72210223905828       -0.65000716526752
H           -2.34427263467222        1.59646352778635        1.58347250021446
H           -0.68221003038624        1.19608556815704        1.05911413333654
H           -3.17891330219945        0.84857896650212       -0.68390868505303
H           -2.63374023067830       -0.87169816535839        1.43031829078374
H           -0.37011435641260       -1.41848817998983        0.91270137373151
H           -0.56688932018343       -1.46740935213558       -2.06327415684133
H            1.82142929871867       -0.94937487052076       -2.80164586608847
H            4.88715272920745        0.81838760187105       -0.45308985712441
H            5.37874466420500        1.60063218432886        1.03158941537282
H           -2.00310832201203       -3.15945808575902       -0.51006854353168
H           -4.26362332528473       -1.29366306635820       -0.17854856299815
