----- Optimization -----
      -----------------------------------------------------------      
     |                   =====================                   |     
     |                           x T B                           |     
     |                   =====================                   |     
     |                         S. Grimme                         |     
     |          Mulliken Center for Theoretical Chemistry        |     
     |                    University of Bonn                     |     
      -----------------------------------------------------------      

   * xtb version 6.7.1 (edcfbbe) compiled by 'conda@3ef47c1a292c' on 2024-11-25

   xtb is free software: you can redistribute it and/or modify it under
   the terms of the GNU Lesser General Public License as published by
   the Free Software Foundation, either version 3 of the License, or
   (at your option) any later version.
   
   xtb is distributed in the hope that it will be useful,
   but WITHOUT ANY WARRANTY; without even the implied warranty of
   MERCHANTABILITY or FITNESS FOR A PARTICULAR PURPOSE.  See the
   GNU Lesser General Public License for more details.
   
   Cite this work as:
   * C. Bannwarth, E. Caldeweyher, S. Ehlert, A. Hansen, P. Pracht,
     J. Seibert, S. Spicher, S. Grimme, WIREs Comput. Mol. Sci., 2020, 11,
     e01493. DOI: 10.1002/wcms.1493
   
   for GFN2-xTB:
   * C. Bannwarth, S. Ehlert and S. Grimme., J. Chem. Theory Comput., 2019,
     15, 1652-1671. DOI: 10.1021/acs.jctc.8b01176
   for GFN1-xTB:
   * S. Grimme, C. Bannwarth, P. Shushkov, J. Chem. Theory Comput., 2017,
     13, 1989-2009. DOI: 10.1021/acs.jctc.7b00118
   for GFN0-xTB:
   * P. Pracht, E. Caldeweyher, S. Ehlert, S. Grimme, ChemRxiv, 2019, preprint.
     DOI: 10.26434/chemrxiv.8326202.v1
   for GFN-FF:
   * S. Spicher and S. Grimme, Angew. Chem. Int. Ed., 2020, 59, 15665-15673.
     DOI: 10.1002/anie.202004239
   
   for ALPB and GBSA implicit solvation:
   * S. Ehlert, M. Stahn, S. Spicher, S. Grimme, J. Chem. Theory Comput.,
     2021, 17, 4250-4261. DOI: 10.1021/acs.jctc.1c00471
   
   for ddCOSMO and CPCM-X implicit solvation:
   * M. Stahn, S. Ehlert, S. Grimme, J. Phys. Chem. A,
     2023, XX, XXXX-XXXX. DOI: 10.1021/acs.jpca.3c04382
   
   for DFT-D4:
   * E. Caldeweyher, C. Bannwarth and S. Grimme, J. Chem. Phys., 2017,
     147, 034112. DOI: 10.1063/1.4993215
   * E. Caldeweyher, S. Ehlert, A. Hansen, H. Neugebauer, S. Spicher,
     C. Bannwarth and S. Grimme, J. Chem. Phys., 2019, 150, 154122.
     DOI: 10.1063/1.5090222
   * E. Caldeweyher, J.-M. Mewes, S. Ehlert and S. Grimme, Phys. Chem. Chem. Phys.
     2020, 22, 8499-8512. DOI: 10.1039/D0CP00502A
   
   for sTDA-xTB:
   * S. Grimme and C. Bannwarth, J. Chem. Phys., 2016, 145, 054103.
     DOI: 10.1063/1.4959605
   
   in the mass-spec context:
   * V. Asgeirsson, C. Bauer and S. Grimme, Chem. Sci., 2017, 8, 4879.
     DOI: 10.1039/c7sc00601b
   * J. Koopman and S. Grimme, ACS Omega 2019, 4, 12, 15120-15133.
     DOI: 10.1021/acsomega.9b02011
   
   for metadynamics refer to:
   * S. Grimme, J. Chem. Theory Comput., 2019, 155, 2847-2862
     DOI: 10.1021/acs.jctc.9b00143
   
   for SPH calculations refer to:
   * S. Spicher and S. Grimme, J. Chem. Theory Comput., 2021, 17, 1701-1714
     DOI: 10.1021/acs.jctc.0c01306
   
   for ONIOM refer to:
   * C. Plett, A. Katbashev, S. Ehlert, S. Grimme, M. Bursch,
     Phys. Chem. Chem. Phys., 2023, 25, 17860-17868. DOI: 10.1039/D3CP02178E
   
   for DIPRO refer to:
   * J. Kohn, N. Gildemeister, S. Grimme, D. Fazzi, A. Hansen,
     J. Chem. Phys., 2023, just accepted.
   
   for PTB refer to:
   * S. Grimme, M. Mueller, A. Hansen, J. Chem. Phys., 2023, 158, 124111.
     DOI: 10.1063/5.0137838
   
   with help from (in alphabetical order)
   P. Atkinson, C. Bannwarth, F. Bohle, G. Brandenburg, E. Caldeweyher
   M. Checinski, S. Dohm, S. Ehlert, S. Ehrlich, I. Gerasimov, C. Hölzer
   A. Katbashev, J. Kohn, J. Koopman, C. Lavigne, S. Lehtola, F. März, M. Müller,
   F. Musil, H. Neugebauer, J. Pisarek, C. Plett, P. Pracht, F. Pultar,
   J. Seibert, P. Shushkov, S. Spicher, M. Stahn, M. Steiner, T. Strunk,
   J. Stückrath, T. Rose, and J. Unsleber
   
 * started run on 2025/05/15 at 16:30:30.443     
   ID    Z sym.   atoms
    1    6 C      1-3, 5-8, 10, 11, 13, 15, 16, 18-20, 22, 23
    2    8 O      4, 21, 24
    3    7 N      9, 14, 17
    4   16 S      12
    5    1 H      25-43

           -------------------------------------------------
          |                Calculation Setup                |
           -------------------------------------------------

          program call               : xtb /rds/general/user/hgt20/home/callum/QDESCP/Omeprazole_rdkit_conf_16/Omeprazole_rdkit_conf_16.xyz --opt normal --acc 1 --gfn 2 --chrg 0 --uhf 0 -P 1
          hostname                   : login-c
          coordinate file            : /rds/general/user/hgt20/home/callum/QDESCP/Omeprazole_rdkit_conf_16/Omeprazole_rdkit_conf_16.xyz
          omp threads                :                     1


           -------------------------------------------------
          |                 G F N 2 - x T B                 |
           -------------------------------------------------

        Reference                      10.1021/acs.jctc.8b01176
      * Hamiltonian:
        H0-scaling (s, p, d)           1.850000    2.230000    2.230000
        zeta-weighting                 0.500000
      * Dispersion:
        s8                             2.700000
        a1                             0.520000
        a2                             5.000000
        s9                             5.000000
      * Repulsion:
        kExp                           1.500000    1.000000
        rExp                           1.000000
      * Coulomb:
        alpha                          2.000000
        third order                    shell-resolved
        anisotropic                    true
        a3                             3.000000
        a5                             4.000000
        cn-shift                       1.200000
        cn-exp                         4.000000
        max-rad                        5.000000


          ...................................................
          :                      SETUP                      :
          :.................................................:
          :  # basis functions                 121          :
          :  # atomic orbitals                 120          :
          :  # shells                           68          :
          :  # electrons                       126          :
          :  max. iterations                   250          :
          :  Hamiltonian                  GFN2-xTB          :
          :  restarted?                      false          :
          :  GBSA solvation                  false          :
          :  PC potential                    false          :
          :  electronic temp.          300.0000000     K    :
          :  accuracy                    1.0000000          :
          :  -> integral cutoff          0.2500000E+02      :
          :  -> integral neglect         0.1000000E-07      :
          :  -> SCF convergence          0.1000000E-05 Eh   :
          :  -> wf. convergence          0.1000000E-03 e    :
          :  Broyden damping             0.4000000          :
          :  net charge                          0          :
          :  unpaired electrons                  0          :
          ...................................................

 iter      E             dE          RMSdq      gap      omega  full diag
   1    -71.0582004 -0.710582E+02  0.450E+00    3.04       0.0  T
   2    -71.1622491 -0.104049E+00  0.256E+00    3.16       1.0  T
   3    -71.1527592  0.948990E-02  0.126E+00    3.01       1.0  T
   4    -71.1718214 -0.190622E-01  0.527E-01    2.97       1.0  T
   5    -71.1800799 -0.825851E-02  0.165E-01    2.93       1.0  T
   6    -71.1802548 -0.174889E-03  0.818E-02    2.92       1.0  T
   7    -71.1803308 -0.760483E-04  0.345E-02    2.93       1.0  T
   8    -71.1803456 -0.147940E-04  0.193E-02    2.94       1.0  T
   9    -71.1803477 -0.214143E-05  0.822E-03    2.94       1.9  T
  10    -71.1803487 -0.971959E-06  0.329E-03    2.94       4.6  T
  11    -71.1803488 -0.524955E-07  0.168E-03    2.94       9.1  T
  12    -71.1803488 -0.219782E-07  0.664E-04    2.94      23.0  T
  13    -71.1803488 -0.619083E-08  0.251E-04    2.94      60.7  T

   *** convergence criteria satisfied after 13 iterations ***

         #    Occupation            Energy/Eh            Energy/eV
      -------------------------------------------------------------
         1        2.0000           -0.7560854             -20.5741
       ...           ...                  ...                  ...
        57        2.0000           -0.4095508             -11.1444
        58        2.0000           -0.4025966             -10.9552
        59        2.0000           -0.3995848             -10.8733
        60        2.0000           -0.3938743             -10.7179
        61        2.0000           -0.3831920             -10.4272
        62        2.0000           -0.3768450             -10.2545
        63        2.0000           -0.3720559             -10.1242 (HOMO)
        64                         -0.2641334              -7.1874 (LUMO)
        65                         -0.2512145              -6.8359
        66                         -0.2366157              -6.4386
        67                         -0.2104316              -5.7261
        68                         -0.2025668              -5.5121
       ...                                ...                  ...
       120                          0.8046427              21.8954
      -------------------------------------------------------------
                  HL-Gap            0.1079225 Eh            2.9367 eV
             Fermi-level           -0.3180946 Eh           -8.6558 eV

 SCC (total)                   0 d,  0 h,  0 min,  0.076 sec
 SCC setup                      ...        0 min,  0.000 sec (  0.541%)
 Dispersion                     ...        0 min,  0.000 sec (  0.646%)
 classical contributions        ...        0 min,  0.000 sec (  0.202%)
 integral evaluation            ...        0 min,  0.008 sec ( 10.857%)
 iterations                     ...        0 min,  0.041 sec ( 54.334%)
 molecular gradient             ...        0 min,  0.025 sec ( 33.140%)
 printout                       ...        0 min,  0.000 sec (  0.270%)

         :::::::::::::::::::::::::::::::::::::::::::::::::::::
         ::                     SUMMARY                     ::
         :::::::::::::::::::::::::::::::::::::::::::::::::::::
         :: total energy             -70.297548082349 Eh    ::
         :: gradient norm              0.103449930957 Eh/a0 ::
         :: HOMO-LUMO gap              2.936721955758 eV    ::
         ::.................................................::
         :: SCC energy               -71.180641014729 Eh    ::
         :: -> isotropic ES            0.095176088670 Eh    ::
         :: -> anisotropic ES          0.008669391523 Eh    ::
         :: -> anisotropic XC          0.031135340027 Eh    ::
         :: -> dispersion             -0.046701254123 Eh    ::
         :: repulsion energy           0.883092932379 Eh    ::
         :: add. restraining           0.000000000000 Eh    ::
         :: total charge               0.000000000000 e     ::
         :::::::::::::::::::::::::::::::::::::::::::::::::::::

      ----------------------------------------------------------- 
     |                   =====================                   |
     |                        A N C O P T                        |
     |                   =====================                   |
     |               Approximate Normal Coordinate               |
     |                Rational Function Optimizer                |
      ----------------------------------------------------------- 
      ----------------------------------------------------------- 
     |                   =====================                   |
     |                        A N C O P T                        |
     |                   =====================                   |
     |               Approximate Normal Coordinate               |
     |                Rational Function Optimizer                |
      ----------------------------------------------------------- 

          ...................................................
          :                      SETUP                      :
          :.................................................:
          :   optimization level            normal          :
          :   max. optcycles                   200          :
          :   ANC micro-cycles                  20          :
          :   degrees of freedom               123          :
          :.................................................:
          :   RF solver                   davidson          :
          :   write xtbopt.log                true          :
          :   linear?                        false          :
          :   energy convergence         0.5000000E-05 Eh   :
          :   grad. convergence          0.1000000E-02 Eh/α :
          :   maxmium RF displ.          1.0000000          :
          :   Hlow (freq-cutoff)         0.1000000E-01      :
          :   Hmax (freq-cutoff)         5.0000000          :
          :   S6 in model hess.         20.0000000          :
          ...................................................

generating ANC from exact Hessian ...
Using Lindh-Hessian (1995)
 Shifting diagonal of input Hessian by    9.7987290779907674E-003
 Lowest  eigenvalues of input Hessian
    0.000000    0.000000    0.000000    0.000000    0.000000    0.000000
    0.010000    0.010019    0.010395    0.010738    0.011468    0.011880
    0.012178    0.012984    0.014567    0.014724    0.015450    0.016055
 Highest eigenvalues
    1.987239    2.033409    2.038661    2.105924    2.227996    2.266507


........................................................................
.............................. CYCLE    1 ..............................
........................................................................

 iter      E             dE          RMSdq      gap      omega  full diag
   1    -71.1803488 -0.711803E+02  0.991E-05    2.94       0.0  T
   2    -71.1803488 -0.604388E-10  0.569E-05    2.94     267.8  T
   3    -71.1803488 -0.237463E-10  0.392E-05    2.94     389.4  T
     SCC iter.                  ...        0 min,  0.008 sec
     gradient                   ...        0 min,  0.026 sec
 * total energy  :   -70.2975481 Eh     change       -0.6283187E-09 Eh
   gradient norm :     0.1034507 Eh/α   predicted     0.0000000E+00 (-100.00%)
   displ. norm   :     0.2666970 α      lambda       -0.1272707E-01
   maximum displ.:     0.0841538 α      in ANC's #48, #35, #9, ...

........................................................................
.............................. CYCLE    2 ..............................
........................................................................

 iter      E             dE          RMSdq      gap      omega  full diag
   1    -71.2146928 -0.712147E+02  0.194E-01    2.92       0.0  T
   2    -71.2147940 -0.101275E-03  0.122E-01    2.96       1.0  T
   3    -71.2147382  0.558514E-04  0.593E-02    2.94       1.0  T
   4    -71.2148454 -0.107252E-03  0.150E-02    2.95       1.0  T
   5    -71.2148488 -0.341771E-05  0.698E-03    2.95       2.2  T
   6    -71.2148490 -0.104916E-06  0.273E-03    2.95       5.6  T
   7    -71.2148491 -0.122876E-06  0.141E-03    2.95      10.8  T
   8    -71.2148491 -0.152455E-07  0.748E-04    2.95      20.4  T
   9    -71.2148491 -0.399444E-08  0.253E-04    2.95      60.3  T
     SCC iter.                  ...        0 min,  0.021 sec
     gradient                   ...        0 min,  0.053 sec
 * total energy  :   -70.3064571 Eh     change       -0.8908997E-02 Eh
   gradient norm :     0.0495103 Eh/α   predicted    -0.6821282E-02 ( -23.43%)
   displ. norm   :     0.2448076 α      lambda       -0.4162955E-02
   maximum displ.:     0.0805959 α      in ANC's #5, #11, #9, ...

........................................................................
.............................. CYCLE    3 ..............................
........................................................................

 iter      E             dE          RMSdq      gap      omega  full diag
   1    -71.2349469 -0.712349E+02  0.129E-01    2.94       0.0  T
   2    -71.2350415 -0.946695E-04  0.865E-02    2.96       1.0  T
   3    -71.2350557 -0.141916E-04  0.444E-02    2.94       1.0  T
   4    -71.2350626 -0.687487E-05  0.138E-02    2.95       1.1  T
   5    -71.2350689 -0.626179E-05  0.395E-03    2.95       3.9  T
   6    -71.2350689 -0.681334E-07  0.240E-03    2.95       6.4  T
   7    -71.2350690 -0.202255E-07  0.803E-04    2.95      19.0  T
   8    -71.2350690 -0.119706E-07  0.437E-04    2.95      34.9  T
     SCC iter.                  ...        0 min,  0.018 sec
     gradient                   ...        0 min,  0.055 sec
 * total energy  :   -70.3088383 Eh     change       -0.2381233E-02 Eh
   gradient norm :     0.0135726 Eh/α   predicted    -0.2206742E-02 (  -7.33%)
   displ. norm   :     0.1712117 α      lambda       -0.5317135E-03
   maximum displ.:     0.0776622 α      in ANC's #5, #7, #11, ...

........................................................................
.............................. CYCLE    4 ..............................
........................................................................

 iter      E             dE          RMSdq      gap      omega  full diag
   1    -71.2364818 -0.712365E+02  0.569E-02    2.95       0.0  T
   2    -71.2364940 -0.122528E-04  0.323E-02    2.95       1.0  T
   3    -71.2364947 -0.703871E-06  0.151E-02    2.94       1.0  T
   4    -71.2364951 -0.408263E-06  0.566E-03    2.94       2.7  T
   5    -71.2364956 -0.525619E-06  0.220E-03    2.94       6.9  T
   6    -71.2364957 -0.472262E-07  0.952E-04    2.94      16.0  T
   7    -71.2364957 -0.199629E-07  0.304E-04    2.94      50.1  T
     SCC iter.                  ...        0 min,  0.016 sec
     gradient                   ...        0 min,  0.025 sec
 * total energy  :   -70.3092448 Eh     change       -0.4064721E-03 Eh
   gradient norm :     0.0070337 Eh/α   predicted    -0.2736883E-03 ( -32.67%)
   displ. norm   :     0.2850079 α      lambda       -0.5180455E-03
   maximum displ.:     0.1353483 α      in ANC's #5, #7, #8, ...

........................................................................
.............................. CYCLE    5 ..............................
........................................................................

 iter      E             dE          RMSdq      gap      omega  full diag
   1    -71.2361525 -0.712362E+02  0.838E-02    2.95       0.0  T
   2    -71.2361652 -0.126886E-04  0.442E-02    2.94       1.0  T
   3    -71.2361642  0.985029E-06  0.170E-02    2.94       1.0  T
   4    -71.2361663 -0.209080E-05  0.824E-03    2.94       1.9  T
   5    -71.2361675 -0.125058E-05  0.302E-03    2.94       5.1  T
   6    -71.2361676 -0.939791E-07  0.103E-03    2.94      14.8  T
   7    -71.2361676 -0.195693E-07  0.453E-04    2.94      33.7  T
   8    -71.2361676 -0.660663E-10  0.241E-04    2.94      63.2  T
     SCC iter.                  ...        0 min,  0.051 sec
     gradient                   ...        0 min,  0.027 sec
 * total energy  :   -70.3095912 Eh     change       -0.3464248E-03 Eh
   gradient norm :     0.0067447 Eh/α   predicted    -0.2800657E-03 ( -19.16%)
   displ. norm   :     0.2320580 α      lambda       -0.2270881E-03
   maximum displ.:     0.1172704 α      in ANC's #7, #5, #8, ...

........................................................................
.............................. CYCLE    6 ..............................
........................................................................

 iter      E             dE          RMSdq      gap      omega  full diag
   1    -71.2359457 -0.712359E+02  0.584E-02    2.95       0.0  T
   2    -71.2359477 -0.199312E-05  0.294E-02    2.94       1.0  T
   3    -71.2359469  0.738326E-06  0.841E-03    2.94       1.8  T
   4    -71.2359479 -0.946396E-06  0.515E-03    2.94       3.0  T
   5    -71.2359484 -0.454364E-06  0.119E-03    2.94      12.9  T
   6    -71.2359484 -0.217972E-07  0.504E-04    2.94      30.3  T
   7    -71.2359484 -0.186365E-08  0.251E-04    2.94      60.8  T
     SCC iter.                  ...        0 min,  0.017 sec
     gradient                   ...        0 min,  0.058 sec
 * total energy  :   -70.3097654 Eh     change       -0.1741979E-03 Eh
   gradient norm :     0.0074111 Eh/α   predicted    -0.1196819E-03 ( -31.30%)
   displ. norm   :     0.2905005 α      lambda       -0.2459927E-03
   maximum displ.:     0.1560220 α      in ANC's #7, #5, #8, ...

........................................................................
.............................. CYCLE    7 ..............................
........................................................................

 iter      E             dE          RMSdq      gap      omega  full diag
   1    -71.2359857 -0.712360E+02  0.676E-02    2.95       0.0  T
   2    -71.2359893 -0.364948E-05  0.342E-02    2.94       1.0  T
   3    -71.2359886  0.710586E-06  0.105E-02    2.94       1.5  T
   4    -71.2359898 -0.116391E-05  0.564E-03    2.94       2.7  T
   5    -71.2359901 -0.374064E-06  0.195E-03    2.94       7.8  T
   6    -71.2359902 -0.677567E-07  0.677E-04    2.94      22.5  T
   7    -71.2359902 -0.617607E-08  0.282E-04    2.94      54.0  T
     SCC iter.                  ...        0 min,  0.017 sec
     gradient                   ...        0 min,  0.064 sec
 * total energy  :   -70.3099510 Eh     change       -0.1855812E-03 Eh
   gradient norm :     0.0062084 Eh/α   predicted    -0.1333768E-03 ( -28.13%)
   displ. norm   :     0.2861087 α      lambda       -0.2073451E-03
   maximum displ.:     0.1527631 α      in ANC's #7, #5, #3, ...

........................................................................
.............................. CYCLE    8 ..............................
........................................................................

 iter      E             dE          RMSdq      gap      omega  full diag
   1    -71.2363621 -0.712364E+02  0.638E-02    2.95       0.0  T
   2    -71.2363670 -0.489686E-05  0.341E-02    2.95       1.0  T
   3    -71.2363663  0.743713E-06  0.117E-02    2.95       1.3  T
   4    -71.2363675 -0.123245E-05  0.523E-03    2.95       2.9  T
   5    -71.2363679 -0.344751E-06  0.209E-03    2.95       7.3  T
   6    -71.2363679 -0.733220E-07  0.726E-04    2.95      21.0  T
   7    -71.2363679 -0.672966E-08  0.260E-04    2.95      58.7  T
     SCC iter.                  ...        0 min,  0.016 sec
     gradient                   ...        0 min,  0.026 sec
 * total energy  :   -70.3101045 Eh     change       -0.1535449E-03 Eh
   gradient norm :     0.0056036 Eh/α   predicted    -0.1121600E-03 ( -26.95%)
   displ. norm   :     0.2636791 α      lambda       -0.1703917E-03
   maximum displ.:     0.1340297 α      in ANC's #7, #3, #5, ...

........................................................................
.............................. CYCLE    9 ..............................
........................................................................

 iter      E             dE          RMSdq      gap      omega  full diag
   1    -71.2369529 -0.712370E+02  0.599E-02    2.96       0.0  T
   2    -71.2369561 -0.319426E-05  0.341E-02    2.96       1.0  T
   3    -71.2369551  0.937739E-06  0.998E-03    2.96       1.5  T
   4    -71.2369564 -0.130871E-05  0.381E-03    2.96       4.0  T
   5    -71.2369566 -0.213042E-06  0.159E-03    2.96       9.6  T
   6    -71.2369567 -0.414762E-07  0.612E-04    2.96      24.9  T
   7    -71.2369567 -0.416732E-08  0.240E-04    2.96      63.4  T
     SCC iter.                  ...        0 min,  0.037 sec
     gradient                   ...        0 min,  0.027 sec
 * total energy  :   -70.3102274 Eh     change       -0.1228673E-03 Eh
   gradient norm :     0.0055084 Eh/α   predicted    -0.9112136E-04 ( -25.84%)
   displ. norm   :     0.1986340 α      lambda       -0.1188355E-03
   maximum displ.:     0.0887271 α      in ANC's #3, #7, #16, ...

........................................................................
.............................. CYCLE   10 ..............................
........................................................................

 iter      E             dE          RMSdq      gap      omega  full diag
   1    -71.2375450 -0.712375E+02  0.505E-02    2.97       0.0  T
   2    -71.2375458 -0.815450E-06  0.294E-02    2.98       1.0  T
   3    -71.2375455  0.375203E-06  0.529E-03    2.98       2.9  T
   4    -71.2375461 -0.609210E-06  0.192E-03    2.98       8.0  T
   5    -71.2375461 -0.137282E-07  0.799E-04    2.98      19.1  T
   6    -71.2375461 -0.914859E-08  0.290E-04    2.98      52.6  T
     SCC iter.                  ...        0 min,  0.015 sec
     gradient                   ...        0 min,  0.060 sec
 * total energy  :   -70.3103095 Eh     change       -0.8210701E-04 Eh
   gradient norm :     0.0041886 Eh/α   predicted    -0.6176322E-04 ( -24.78%)
   displ. norm   :     0.1274371 α      lambda       -0.5842694E-04
   maximum displ.:     0.0588809 α      in ANC's #3, #16, #8, ...

........................................................................
.............................. CYCLE   11 ..............................
........................................................................

 iter      E             dE          RMSdq      gap      omega  full diag
   1    -71.2376599 -0.712377E+02  0.359E-02    2.98       0.0  T
   2    -71.2376604 -0.494587E-06  0.205E-02    2.99       1.0  T
   3    -71.2376602  0.109521E-06  0.375E-03    2.98       4.1  T
   4    -71.2376604 -0.166528E-06  0.172E-03    2.99       8.8  T
   5    -71.2376605 -0.642099E-07  0.610E-04    2.99      25.0  T
   6    -71.2376605 -0.429027E-08  0.204E-04    2.99      74.8  T
     SCC iter.                  ...        0 min,  0.015 sec
     gradient                   ...        0 min,  0.058 sec
 * total energy  :   -70.3103496 Eh     change       -0.4006364E-04 Eh
   gradient norm :     0.0025204 Eh/α   predicted    -0.2968821E-04 ( -25.90%)
   displ. norm   :     0.0833921 α      lambda       -0.2941921E-04
   maximum displ.:     0.0384471 α      in ANC's #3, #16, #8, ...

........................................................................
.............................. CYCLE   12 ..............................
........................................................................

 iter      E             dE          RMSdq      gap      omega  full diag
   1    -71.2376427 -0.712376E+02  0.250E-02    2.99       0.0  T
   2    -71.2376433 -0.603034E-06  0.137E-02    2.99       1.1  T
   3    -71.2376432  0.777902E-07  0.431E-03    2.99       3.5  T
   4    -71.2376433 -0.107129E-06  0.173E-03    2.99       8.8  T
   5    -71.2376434 -0.689586E-07  0.607E-04    2.99      25.1  T
   6    -71.2376434 -0.501264E-08  0.229E-04    2.99      66.6  T
     SCC iter.                  ...        0 min,  0.015 sec
     gradient                   ...        0 min,  0.027 sec
 * total energy  :   -70.3103703 Eh     change       -0.2069981E-04 Eh
   gradient norm :     0.0015801 Eh/α   predicted    -0.1481396E-04 ( -28.43%)
   displ. norm   :     0.1044950 α      lambda       -0.1894191E-04
   maximum displ.:     0.0448950 α      in ANC's #3, #8, #16, ...

........................................................................
.............................. CYCLE   13 ..............................
........................................................................

 iter      E             dE          RMSdq      gap      omega  full diag
   1    -71.2374667 -0.712375E+02  0.303E-02    2.99       0.0  T
   2    -71.2374677 -0.995286E-06  0.164E-02    2.99       1.0  T
   3    -71.2374676  0.807921E-07  0.537E-03    2.99       2.8  T
   4    -71.2374678 -0.155344E-06  0.220E-03    2.99       6.9  T
   5    -71.2374679 -0.839446E-07  0.819E-04    2.99      18.6  T
   6    -71.2374679 -0.114486E-07  0.317E-04    2.99      48.2  T
     SCC iter.                  ...        0 min,  0.048 sec
     gradient                   ...        0 min,  0.026 sec
 * total energy  :   -70.3103864 Eh     change       -0.1608873E-04 Eh
   gradient norm :     0.0018221 Eh/α   predicted    -0.9519301E-05 ( -40.83%)
   displ. norm   :     0.0424851 α      lambda       -0.8243850E-05
   maximum displ.:     0.0212378 α      in ANC's #7, #8, #3, ...

........................................................................
.............................. CYCLE   14 ..............................
........................................................................

 iter      E             dE          RMSdq      gap      omega  full diag
   1    -71.2375800 -0.712376E+02  0.109E-02    2.99       0.0  T
   2    -71.2375800 -0.477793E-07  0.633E-03    2.99       2.4  T
   3    -71.2375800  0.288171E-07  0.127E-03    2.99      12.0  T
   4    -71.2375801 -0.438653E-07  0.464E-04    2.99      32.9  T
   5    -71.2375801 -0.817550E-09  0.196E-04    2.99      78.0  T
     SCC iter.                  ...        0 min,  0.057 sec
     gradient                   ...        0 min,  0.026 sec
 * total energy  :   -70.3103961 Eh     change       -0.9764521E-05 Eh
   gradient norm :     0.0012310 Eh/α   predicted    -0.4127468E-05 ( -57.73%)
   displ. norm   :     0.0891272 α      lambda       -0.1135141E-04
   maximum displ.:     0.0372827 α      in ANC's #7, #8, #3, ...

........................................................................
.............................. CYCLE   15 ..............................
........................................................................

 iter      E             dE          RMSdq      gap      omega  full diag
   1    -71.2373425 -0.712373E+02  0.212E-02    2.98       0.0  T
   2    -71.2373427 -0.150037E-06  0.125E-02    2.98       1.2  T
   3    -71.2373425  0.194266E-06  0.250E-03    2.98       6.1  T
   4    -71.2373427 -0.245926E-06  0.785E-04    2.98      19.4  T
   5    -71.2373427 -0.114978E-07  0.333E-04    2.98      45.8  T
     SCC iter.                  ...        0 min,  0.063 sec
     gradient                   ...        0 min,  0.026 sec
 * total energy  :   -70.3104076 Eh     change       -0.1150502E-04 Eh
   gradient norm :     0.0010740 Eh/α   predicted    -0.5696654E-05 ( -50.49%)
   displ. norm   :     0.0782142 α      lambda       -0.7643333E-05
   maximum displ.:     0.0468435 α      in ANC's #7, #3, #8, ...

........................................................................
.............................. CYCLE   16 ..............................
........................................................................

 iter      E             dE          RMSdq      gap      omega  full diag
   1    -71.2378905 -0.712379E+02  0.199E-02    2.98       0.0  T
   2    -71.2378906 -0.151253E-06  0.113E-02    2.98       1.3  T
   3    -71.2378904  0.165338E-06  0.257E-03    2.98       5.9  T
   4    -71.2378906 -0.196215E-06  0.116E-03    2.98      13.1  T
   5    -71.2378907 -0.300029E-07  0.278E-04    2.98      54.9  T
   6    -71.2378907 -0.975263E-09  0.114E-04    2.98     134.2  T
     SCC iter.                  ...        0 min,  0.014 sec
     gradient                   ...        0 min,  0.072 sec
 * total energy  :   -70.3104155 Eh     change       -0.7843542E-05 Eh
   gradient norm :     0.0012452 Eh/α   predicted    -0.3834305E-05 ( -51.12%)
   displ. norm   :     0.1006400 α      lambda       -0.8199882E-05
   maximum displ.:     0.0442798 α      in ANC's #7, #3, #8, ...

........................................................................
.............................. CYCLE   17 ..............................
........................................................................

 iter      E             dE          RMSdq      gap      omega  full diag
   1    -71.2374002 -0.712374E+02  0.227E-02    2.98       0.0  T
   2    -71.2374004 -0.169456E-06  0.133E-02    2.98       1.1  T
   3    -71.2374002  0.219292E-06  0.286E-03    2.98       5.3  T
   4    -71.2374005 -0.268897E-06  0.942E-04    2.98      16.2  T
   5    -71.2374005 -0.230542E-07  0.382E-04    2.98      39.9  T
     SCC iter.                  ...        0 min,  0.012 sec
     gradient                   ...        0 min,  0.064 sec
 * total energy  :   -70.3104238 Eh     change       -0.8340971E-05 Eh
   gradient norm :     0.0010691 Eh/α   predicted    -0.4119173E-05 ( -50.62%)
   displ. norm   :     0.0724861 α      lambda       -0.6706922E-05
   maximum displ.:     0.0430923 α      in ANC's #7, #3, #2, ...

........................................................................
.............................. CYCLE   18 ..............................
........................................................................

 iter      E             dE          RMSdq      gap      omega  full diag
   1    -71.2375082 -0.712375E+02  0.182E-02    2.98       0.0  T
   2    -71.2375083 -0.157107E-06  0.103E-02    2.98       1.5  T
   3    -71.2375083  0.833891E-07  0.247E-03    2.98       6.2  T
   4    -71.2375084 -0.111612E-06  0.109E-03    2.98      13.9  T
   5    -71.2375084 -0.204176E-07  0.389E-04    2.98      39.2  T
   6    -71.2375084 -0.353182E-08  0.118E-04    2.98     129.2  T
     SCC iter.                  ...        0 min,  0.014 sec
     gradient                   ...        0 min,  0.075 sec
 * total energy  :   -70.3104311 Eh     change       -0.7284405E-05 Eh
   gradient norm :     0.0006380 Eh/α   predicted    -0.3365184E-05 ( -53.80%)
   displ. norm   :     0.0576472 α      lambda       -0.4109262E-05
   maximum displ.:     0.0336402 α      in ANC's #7, #3, #16, ...

........................................................................
.............................. CYCLE   19 ..............................
........................................................................

 iter      E             dE          RMSdq      gap      omega  full diag
   1    -71.2375789 -0.712376E+02  0.147E-02    2.98       0.0  T
   2    -71.2375789 -0.694230E-07  0.835E-03    2.98       1.8  T
   3    -71.2375789  0.121238E-07  0.155E-03    2.98       9.8  T
   4    -71.2375790 -0.269932E-07  0.780E-04    2.98      19.6  T
   5    -71.2375790 -0.865853E-08  0.249E-04    2.98      61.3  T
     SCC iter.                  ...        0 min,  0.012 sec
     gradient                   ...        0 min,  0.027 sec
 * total energy  :   -70.3104355 Eh     change       -0.4370621E-05 Eh
   gradient norm :     0.0005106 Eh/α   predicted    -0.2059899E-05 ( -52.87%)
   displ. norm   :     0.0482087 α      lambda       -0.2664152E-05
   maximum displ.:     0.0270367 α      in ANC's #7, #3, #2, ...

   *** GEOMETRY OPTIMIZATION CONVERGED AFTER 19 ITERATIONS ***

------------------------------------------------------------------------
 total energy gain   :        -0.0128874 Eh       -8.0870 kcal/mol
 total RMSD          :         0.3316805 a0        0.1755 Å
 total power (kW/mol):        -1.7808330 (step)  -22.3922 (real)
------------------------------------------------------------------------

 ANCopt (total)                0 d,  0 h,  0 min,  1.511 sec
 optimizer setup                ...        0 min,  0.000 sec (  0.005%)
 model hessian                  ...        0 min,  0.009 sec (  0.615%)
 ANC generation                 ...        0 min,  0.002 sec (  0.102%)
 coordinate transformation      ...        0 min,  0.000 sec (  0.010%)
 single point calculation       ...        0 min,  1.492 sec ( 98.729%)
 optimization log               ...        0 min,  0.003 sec (  0.230%)
 hessian update                 ...        0 min,  0.000 sec (  0.017%)
 rational function              ...        0 min,  0.003 sec (  0.207%)

================
 final structure:
================
43
 xtb: 6.7.1 (edcfbbe)
C           -6.38586824950368       -0.07975202125735       -1.64124147417916
C           -4.90568623454277        0.00380583232848       -1.43616738084342
C           -4.28591051655976       -0.53625300830179       -0.30485555792193
O           -5.04000255469221       -1.16744947391490        0.66936688747520
C           -5.29379174671388       -2.53078201349216        0.40309772088664
C           -2.90718062109199       -0.40172100427221       -0.13123453490907
C           -2.22407764454211       -0.95033335764587        1.08274451084260
C           -4.08180898758211        0.63136606279616       -2.36169437480266
N           -2.77562239279518        0.74248438122769       -2.22937281047528
C           -2.19577523047688        0.25117693125829       -1.14445889129423
C           -0.72623306164163        0.45330612151850       -1.03729034604122
S           -0.38561082655794        1.77850240518931        0.24060131256504
C            1.34451056114047        1.30215906636818        0.41465307308382
N            1.80690622116461        0.16779395683049        0.85269290143414
C            3.17387652632641        0.31045257783859        0.83442738832533
C            3.50642595586783        1.60654859988722        0.36136326142307
N            2.30245074071597        2.21416726425275        0.10944204688985
C            4.82196092712777        2.01210449833150        0.23925792135754
C            5.80612672624233        1.11198813112950        0.59912996879256
C            5.49115954582740       -0.17122666371579        1.07145087343810
O            6.42627511137975       -1.09413054950242        1.44217463767072
C            7.78900299031201       -0.76140045881587        1.34919732505535
C            4.17024070166271       -0.58423314882371        1.19122245828125
O           -0.29161232269717        3.05889376074777       -0.46479176921676
H           -6.63457863230687       -0.91863770692295       -2.29269662665754
H           -6.89080568893389       -0.21664344802528       -0.68787289960665
H           -6.75172732467548        0.82939006723149       -2.11295531079313
H           -4.36215129365791       -3.10458796049396        0.34604222934335
H           -5.84766111267756       -2.66442207646547       -0.53151370759018
H           -5.89375469798094       -2.89452957732467        1.23541902758079
H           -1.57148177096329       -1.78043439808286        0.81037425679083
H           -2.96627786197432       -1.30306926747085        1.79404737742206
H           -1.61190752040855       -0.19077771757240        1.56343704517380
H           -4.49826096509436        1.06679996544421       -3.26058685373470
H           -0.32433596407214        0.81431997419555       -1.98093970421937
H           -0.20518369291704       -0.43233409282655       -0.68264928847420
H            2.10678109243307        3.13343923111692       -0.25503025490063
H            5.07818552270576        2.99622251084563       -0.12186221817171
H            6.83609783282477        1.41728946782331        0.51013622028427
H            8.08284002922077       -0.54185923341484        0.31727545761089
H            8.32876104096589       -1.64186848231400        1.69472007721740
H            8.04325125531515        0.08980056972582        1.98962664404300
H            3.94245413382853       -1.57126571543196        1.55501338084437

 Bond Distances (Angstroems)
 ---------------------------
C1-C2=1.4967         C1-H25=1.0909        C1-H26=1.0875        C1-H27=1.0876        C2-C1=1.4967         C2-C3=1.3984         
C2-C8=1.3890         C3-C2=1.3984         C3-O4=1.3843         C3-C6=1.3961         O4-C3=1.3843         O4-C5=1.4121         
C5-O4=1.4121         C5-H28=1.0957        C5-H29=1.0946        C5-H30=1.0886        C6-C3=1.3961         C6-C7=1.4971         
C6-C10=1.3996        C7-C6=1.4971         C7-H31=1.0905        C7-H32=1.0868        C7-H33=1.0875        C8-C2=1.3890         
C8-N9=1.3176         C8-H34=1.0821        N9-C8=1.3176         N9-C10=1.3246        C10-C6=1.3996        C10-N9=1.3246        
C10-C11=1.4872       C11-C10=1.4872       C11-S12=1.8722       C11-H35=1.0873       C11-H36=1.0870       S12-C11=1.8722       
S12-C13=1.8029       S12-O24=1.4649       C13-S12=1.8029       C13-N14=1.3010       C13-N17=1.3574       N14-C13=1.3010       
N14-C15=1.3745       C15-N14=1.3745       C15-C16=1.4192       C15-C23=1.3858       C16-C15=1.4192       C16-N17=1.3719       
C16-C18=1.3820       N17-C13=1.3574       N17-C16=1.3719       N17-H37=1.0081       C18-C16=1.3820       C18-C19=1.3814       
C18-H38=1.0791       C19-C18=1.3814       C19-C20=1.4032       C19-H39=1.0779       C20-C19=1.4032       C20-O21=1.3651       
C20-C23=1.3892       O21-C20=1.3651       O21-C22=1.4058       C22-O21=1.4058       C22-H40=1.0952       C22-H41=1.0890       
C22-H42=1.0951       C23-C15=1.3858       C23-C20=1.3892       C23-H43=1.0763       O24-S12=1.4649       H25-C1=1.0909        
H26-C1=1.0875        H27-C1=1.0876        H28-C5=1.0957        H29-C5=1.0946        H30-C5=1.0886        H31-C7=1.0905        
H32-C7=1.0868        H33-C7=1.0875        H34-C8=1.0821        H35-C11=1.0873       H36-C11=1.0870       H37-N17=1.0081       
H38-C18=1.0791       H39-C19=1.0779       H40-C22=1.0952       H41-C22=1.0890       H42-C22=1.0951       H43-C23=1.0763       
 C  H  Rav=1.0877 sigma=0.0056  Rmin=1.0763  Rmax=1.0957    18
 C  C  Rav=1.4173 sigma=0.0430  Rmin=1.3814  Rmax=1.4971    13
 N  H  Rav=1.0081 sigma=0.0000  Rmin=1.0081  Rmax=1.0081     1
 N  C  Rav=1.3412 sigma=0.0282  Rmin=1.3010  Rmax=1.3745     6
 O  C  Rav=1.3918 sigma=0.0185  Rmin=1.3651  Rmax=1.4121     4
 S  C  Rav=1.8376 sigma=0.0346  Rmin=1.8029  Rmax=1.8722     2
 S  O  Rav=1.4649 sigma=0.0000  Rmin=1.4649  Rmax=1.4649     1

 selected bond angles (degree)
 --------------------
H25-C1-C2=110.50               H26-C1-C2=110.25               H26-C1-H25=108.72              H27-C1-C2=110.21               
H27-C1-H25=107.89              H27-C1-H26=109.22              C3-C2-C1=121.84                C8-C2-C1=121.37                
C8-C2-C3=116.79                O4-C3-C2=120.27                C6-C3-C2=120.07                C6-C3-O4=119.63                
C5-O4-C3=113.92                H28-C5-O4=111.26               H29-C5-O4=111.70               H29-C5-H28=108.78              
H30-C5-O4=106.11               H30-C5-H28=109.48              H30-C5-H29=109.46              C7-C6-C3=121.07                
C10-C6-C3=117.19               C10-C6-C7=121.74               H31-C7-C6=110.46               H32-C7-C6=109.76               
H32-C7-H31=108.97              H33-C7-C6=111.06               H33-C7-H31=107.77              H33-C7-H32=108.77              
N9-C8-C2=124.00                H34-C8-C2=120.47               H34-C8-N9=115.53               C10-N9-C8=119.01               
N9-C10-C6=122.92               C11-C10-C6=120.89              C11-C10-N9=116.18              

 selected dihedral angles (degree)
 ---------------------------------
C3-C2-C1-H25=262.61           C3-C2-C1-H26= 22.81           C3-C2-C1-H27=143.46           C8-C2-C1-H25= 82.99           
C8-C2-C1-H26=203.20           C8-C2-C1-H27=323.85           O4-C3-C2-C1=359.80            O4-C3-C2-C8=179.43            
C6-C3-C2-C1=181.95            C6-C3-C2-C8=  1.58            C5-O4-C3-C2= 85.37            C5-O4-C3-C6=263.24            
H28-C5-O4-C3= 61.38           H29-C5-O4-C3=299.60           H30-C5-O4-C3=180.38           C7-C6-C3-C2=178.93            
C7-C6-C3-O4=  1.06            C10-C6-C3-C2=358.21           C10-C6-C3-O4=180.34           H31-C7-C6-C3=112.43           
H31-C7-C6-C10=293.19          H32-C7-C6-C3=352.26           H32-C7-C6-C10=173.01          H33-C7-C6-C3=231.95           
H33-C7-C6-C10= 52.70          N9-C8-C2-C1=179.54            N9-C8-C2-C3=359.90            H34-C8-C2-C1=359.40           
H34-C8-C2-C3=179.77           C10-N9-C8-C2=358.87           C10-N9-C8-H34=178.99          N9-C10-C6-C3=  0.56           
N9-C10-C6-C7=179.84           C11-C10-C6-C3=179.31          C11-C10-C6-C7=358.58          C6-C10-N9-C8=  0.88           
C11-C10-N9-C8=182.08          
           -------------------------------------------------
          |                Final Singlepoint                |
           -------------------------------------------------

          ...................................................
          :                      SETUP                      :
          :.................................................:
          :  # basis functions                 121          :
          :  # atomic orbitals                 120          :
          :  # shells                           68          :
          :  # electrons                       126          :
          :  max. iterations                   250          :
          :  Hamiltonian                  GFN2-xTB          :
          :  restarted?                      false          :
          :  GBSA solvation                  false          :
          :  PC potential                    false          :
          :  electronic temp.          300.0000000     K    :
          :  accuracy                    1.0000000          :
          :  -> integral cutoff          0.2500000E+02      :
          :  -> integral neglect         0.1000000E-07      :
          :  -> SCF convergence          0.1000000E-05 Eh   :
          :  -> wf. convergence          0.1000000E-03 e    :
          :  Broyden damping             0.4000000          :
          :  net charge                          0          :
          :  unpaired electrons                  0          :
          ...................................................

 iter      E             dE          RMSdq      gap      omega  full diag
   1    -71.2375790 -0.712376E+02  0.984E-05    2.98       0.0  T
   2    -71.2375790 -0.402736E-10  0.658E-05    2.98     231.6  T
   3    -71.2375790 -0.207478E-10  0.449E-05    2.98     339.8  T

   *** convergence criteria satisfied after 3 iterations ***

         #    Occupation            Energy/Eh            Energy/eV
      -------------------------------------------------------------
         1        2.0000           -0.7603468             -20.6901
       ...           ...                  ...                  ...
        57        2.0000           -0.4075874             -11.0910
        58        2.0000           -0.4044488             -11.0056
        59        2.0000           -0.3984938             -10.8436
        60        2.0000           -0.3924123             -10.6781
        61        2.0000           -0.3848554             -10.4724
        62        2.0000           -0.3758532             -10.2275
        63        2.0000           -0.3698460             -10.0640 (HOMO)
        64                         -0.2601945              -7.0803 (LUMO)
        65                         -0.2436626              -6.6304
        66                         -0.2348283              -6.3900
        67                         -0.2094226              -5.6987
        68                         -0.2044782              -5.5641
       ...                                ...                  ...
       120                          0.9173735              24.9630
      -------------------------------------------------------------
                  HL-Gap            0.1096516 Eh            2.9838 eV
             Fermi-level           -0.3150202 Eh           -8.5721 eV

 SCC (total)                   0 d,  0 h,  0 min,  0.084 sec
 SCC setup                      ...        0 min,  0.000 sec (  0.379%)
 Dispersion                     ...        0 min,  0.000 sec (  0.372%)
 classical contributions        ...        0 min,  0.000 sec (  0.173%)
 integral evaluation            ...        0 min,  0.050 sec ( 59.462%)
 iterations                     ...        0 min,  0.007 sec (  8.415%)
 molecular gradient             ...        0 min,  0.026 sec ( 31.005%)
 printout                       ...        0 min,  0.000 sec (  0.185%)

         :::::::::::::::::::::::::::::::::::::::::::::::::::::
         ::                     SUMMARY                     ::
         :::::::::::::::::::::::::::::::::::::::::::::::::::::
         :: total energy             -70.310435469691 Eh    ::
         :: gradient norm              0.000510194718 Eh/a0 ::
         :: HOMO-LUMO gap              2.983770827199 eV    ::
         ::.................................................::
         :: SCC energy               -71.237865002609 Eh    ::
         :: -> isotropic ES            0.091790348370 Eh    ::
         :: -> anisotropic ES          0.006345604097 Eh    ::
         :: -> anisotropic XC          0.029658158577 Eh    ::
         :: -> dispersion             -0.047370355916 Eh    ::
         :: repulsion energy           0.927429532918 Eh    ::
         :: add. restraining           0.000000000000 Eh    ::
         :: total charge               0.000000000000 e     ::
         :::::::::::::::::::::::::::::::::::::::::::::::::::::

           -------------------------------------------------
          |                Property Printout                |
           -------------------------------------------------

    * Orbital Energies and Occupations

         #    Occupation            Energy/Eh            Energy/eV
      -------------------------------------------------------------
         1        2.0000           -0.7603468             -20.6901
       ...           ...                  ...                  ...
        51        2.0000           -0.4551182             -12.3844
        52        2.0000           -0.4491639             -12.2224
        53        2.0000           -0.4428946             -12.0518
        54        2.0000           -0.4365729             -11.8798
        55        2.0000           -0.4226395             -11.5006
        56        2.0000           -0.4169792             -11.3466
        57        2.0000           -0.4075874             -11.0910
        58        2.0000           -0.4044488             -11.0056
        59        2.0000           -0.3984938             -10.8436
        60        2.0000           -0.3924123             -10.6781
        61        2.0000           -0.3848554             -10.4724
        62        2.0000           -0.3758532             -10.2275
        63        2.0000           -0.3698460             -10.0640 (HOMO)
        64                         -0.2601945              -7.0803 (LUMO)
        65                         -0.2436626              -6.6304
        66                         -0.2348283              -6.3900
        67                         -0.2094226              -5.6987
        68                         -0.2044782              -5.5641
        69                         -0.1833771              -4.9899
        70                         -0.1693206              -4.6074
        71                         -0.1185715              -3.2265
        72                         -0.0850446              -2.3142
        73                         -0.0464741              -1.2646
        74                         -0.0001893              -0.0052
       ...                                ...                  ...
       120                          0.9173735              24.9630
      -------------------------------------------------------------
                  HL-Gap            0.1096516 Eh            2.9838 eV
             Fermi-level           -0.3150202 Eh           -8.5721 eV

     #   Z          covCN         q      C6AA      α(0)
     1   6 C        3.757    -0.104    22.543     6.770
     2   6 C        2.958    -0.016    28.403     8.741
     3   6 C        2.894     0.135    25.044     8.205
     4   8 O        1.703    -0.307    19.115     5.903
     5   6 C        3.656     0.045    20.101     6.436
     6   6 C        2.961    -0.023    28.570     8.767
     7   6 C        3.757    -0.115    22.761     6.802
     8   6 C        2.912     0.042    27.058     8.530
     9   7 N        1.842    -0.235    26.994     7.700
    10   6 C        3.001     0.078    26.242     8.403
    11   6 C        3.801    -0.090    22.226     6.712
    12  16 S        2.871     0.413   125.351    18.844
    13   6 C        3.205     0.106    25.101     8.160
    14   7 N        1.893    -0.291    28.390     7.899
    15   6 C        3.219     0.069    25.786     8.258
    16   6 C        3.099     0.034    27.115     8.533
    17   7 N        2.798    -0.110    23.392     7.183
    18   6 C        2.907    -0.052    29.294     8.875
    19   6 C        2.924    -0.069    29.709     8.939
    20   6 C        2.866     0.137    25.005     8.197
    21   8 O        1.706    -0.269    18.452     5.800
    22   6 C        3.642     0.037    20.295     6.477
    23   6 C        2.911    -0.068    29.693     8.935
    24   8 O        0.860    -0.485    23.463     6.494
    25   1 H        0.924     0.047     2.361     2.403
    26   1 H        0.925     0.059     2.211     2.325
    27   1 H        0.925     0.048     2.345     2.395
    28   1 H        0.924     0.032     2.555     2.500
    29   1 H        0.924     0.034     2.536     2.490
    30   1 H        0.925     0.058     2.221     2.330
    31   1 H        0.924     0.054     2.273     2.357
    32   1 H        0.925     0.065     2.137     2.286
    33   1 H        0.925     0.054     2.274     2.358
    34   1 H        0.925     0.046     2.373     2.409
    35   1 H        0.925     0.086     1.921     2.167
    36   1 H        0.925     0.075     2.028     2.227
    37   1 H        0.860     0.191     1.153     1.682
    38   1 H        0.926     0.038     2.472     2.459
    39   1 H        0.926     0.042     2.416     2.431
    40   1 H        0.924     0.040     2.454     2.450
    41   1 H        0.925     0.063     2.163     2.300
    42   1 H        0.924     0.040     2.452     2.449
    43   1 H        0.926     0.065     2.147     2.291

 Mol. C6AA /au·bohr⁶  :      23682.303799
 Mol. C8AA /au·bohr⁸  :     592308.210290
 Mol. α(0) /au        :        239.873929


Wiberg/Mayer (AO) data.
largest (>0.10) Wiberg bond orders for each atom

 ---------------------------------------------------------------------------
     #   Z sym  total        # sym  WBO       # sym  WBO       # sym  WBO
 ---------------------------------------------------------------------------
     1   6 C    3.995 --     2 C    1.027    26 H    0.980    27 H    0.978
                            25 H    0.966
     2   6 C    3.983 --     8 C    1.399     3 C    1.362     1 C    1.027
     3   6 C    3.944 --     6 C    1.382     2 C    1.362     4 O    1.001
     4   8 O    2.107 --     3 C    1.001     5 C    0.971
     5   6 C    3.948 --    30 H    0.980    28 H    0.980    29 H    0.978
                             4 O    0.971
     6   6 C    3.987 --     3 C    1.382    10 C    1.352     7 C    1.030
                             8 C    0.103
     7   6 C    3.993 --     6 C    1.030    32 H    0.980    33 H    0.968
                            31 H    0.965
     8   6 C    3.982 --     9 N    1.440     2 C    1.399    34 H    0.961
                             6 C    0.103
     9   7 N    3.062 --     8 C    1.440    10 C    1.405
    10   6 C    3.982 --     9 N    1.405     6 C    1.352    11 C    1.030
    11   6 C    3.978 --    10 C    1.030    35 H    0.966    36 H    0.959
                            12 S    0.874
    12  16 S    3.775 --    24 O    1.817    13 C    0.930    11 C    0.874
    13   6 C    3.948 --    14 N    1.546    17 N    1.233    12 S    0.930
    14   7 N    3.011 --    13 C    1.546    15 C    1.199    17 N    0.127
    15   6 C    3.977 --    23 C    1.353    16 C    1.236    14 N    1.199
    16   6 C    3.951 --    18 C    1.355    15 C    1.236    17 N    1.149
    17   7 N    3.563 --    13 C    1.233    16 C    1.149    37 H    0.930
                            14 N    0.127
    18   6 C    3.988 --    19 C    1.475    16 C    1.355    38 H    0.968
                            23 C    0.115
    19   6 C    3.981 --    18 C    1.475    20 C    1.327    39 H    0.966
    20   6 C    3.934 --    23 C    1.403    19 C    1.327    21 O    1.057
    21   8 O    2.224 --    20 C    1.057    22 C    0.987
    22   6 C    3.947 --    21 O    0.987    41 H    0.979    40 H    0.976
                            42 H    0.976
    23   6 C    3.982 --    20 C    1.403    15 C    1.353    43 H    0.965
                            18 C    0.115
    24   8 O    1.996 --    12 S    1.817
    25   1 H    0.997 --     1 C    0.966
    26   1 H    0.996 --     1 C    0.980
    27   1 H    0.997 --     1 C    0.978
    28   1 H    0.999 --     5 C    0.980
    29   1 H    0.999 --     5 C    0.978
    30   1 H    0.996 --     5 C    0.980
    31   1 H    0.997 --     7 C    0.965
    32   1 H    0.996 --     7 C    0.980
    33   1 H    0.997 --     7 C    0.968
    34   1 H    0.997 --     8 C    0.961
    35   1 H    0.992 --    11 C    0.966
    36   1 H    0.994 --    11 C    0.959
    37   1 H    0.963 --    17 N    0.930
    38   1 H    0.998 --    18 C    0.968
    39   1 H    0.998 --    19 C    0.966
    40   1 H    0.998 --    22 C    0.976
    41   1 H    0.996 --    22 C    0.979
    42   1 H    0.998 --    22 C    0.976
    43   1 H    0.995 --    23 C    0.965
 ---------------------------------------------------------------------------

Topologies differ in total number of bonds
Writing topology from bond orders to xtbtopo.mol

molecular dipole:
                 x           y           z       tot (Debye)
 q only:        0.389      -0.995       0.157
   full:        0.596      -0.776      -0.129       2.510
molecular quadrupole (traceless):
                xx          xy          yy          xz          yz          zz
 q only:       25.722      15.773     -14.080       3.093       3.931     -11.642
  q+dip:       32.201      23.694     -14.845       3.024       2.712     -17.356
   full:       31.082      23.273     -14.423       3.309       5.826     -16.659

           -------------------------------------------------
          |                Geometry Summary                 |
           -------------------------------------------------

      molecular mass/u    :      345.4164963
   center of mass at/Å    :        0.1616800       0.3665238       0.0291558
  moments of inertia/u·Å² :        0.8247772E+03   0.6232252E+04   0.6749959E+04
rotational constants/cm⁻¹ :        0.2043901E-01   0.2704902E-02   0.2497442E-02

 * 42 selected distances

     #   Z          #   Z                                           value/Å
     2   6 C        3   6 C                                       1.3984464
     3   6 C        4   8 O                                       1.3842592
     4   8 O        5   6 C                                       1.4120851
     3   6 C        6   6 C                                       1.3961159
     2   6 C        8   6 C                                       1.3889587
     8   6 C        9   7 N                                       1.3175659
     6   6 C       10   6 C                                       1.3996418
     9   7 N       10   6 C                                       1.3246299
    10   6 C       11   6 C                                       1.4872444
    12  16 S       13   6 C                                       1.8029192 (max)
    13   6 C       14   7 N                                       1.3009509
    14   7 N       15   6 C                                       1.3745157
    15   6 C       16   6 C                                       1.4192407
    13   6 C       17   7 N                                       1.3574102
    16   6 C       17   7 N                                       1.3719407
    16   6 C       18   6 C                                       1.3820340
    18   6 C       19   6 C                                       1.3814123
    19   6 C       20   6 C                                       1.4031864
    20   6 C       21   8 O                                       1.3651480
    21   8 O       22   6 C                                       1.4058384
    15   6 C       23   6 C                                       1.3858237
    20   6 C       23   6 C                                       1.3891532
    12  16 S       24   8 O                                       1.4648609
     1   6 C       25   1 H                                       1.0908621
     1   6 C       26   1 H                                       1.0874801
     1   6 C       27   1 H                                       1.0876150
     5   6 C       28   1 H                                       1.0956563
     5   6 C       29   1 H                                       1.0945911
     5   6 C       30   1 H                                       1.0885894
     7   6 C       31   1 H                                       1.0904746
     7   6 C       32   1 H                                       1.0868467
     7   6 C       33   1 H                                       1.0875397
     8   6 C       34   1 H                                       1.0821473
    11   6 C       35   1 H                                       1.0873484
    11   6 C       36   1 H                                       1.0870242
    17   7 N       37   1 H                                       1.0080614 (min)
    18   6 C       38   1 H                                       1.0791419
    19   6 C       39   1 H                                       1.0779469
    22   6 C       40   1 H                                       1.0951719
    22   6 C       41   1 H                                       1.0890128
    22   6 C       42   1 H                                       1.0951417
    23   6 C       43   1 H                                       1.0763197

 * 7 distinct bonds (by element types)

   Z      Z             #   av. dist./Å        max./Å        min./Å
   1 H    6 C          18     1.0877172     1.0956563     1.0763197
   6 C    6 C          11     1.4028416     1.4872444     1.3814123
   1 H    7 N           1     1.0080614     1.0080614     1.0080614
   6 C    7 N           6     1.3411689     1.3745157     1.3009509
   6 C    8 O           4     1.3918327     1.4120851     1.3651480
   6 C   16 S           1     1.8029192     1.8029192     1.8029192
   8 O   16 S           1     1.4648609     1.4648609     1.4648609


optimized geometry written to: xtbopt.xyz


           -------------------------------------------------
          | TOTAL ENERGY              -70.310435469691 Eh   |
          | GRADIENT NORM               0.000510194718 Eh/α |
          | HOMO-LUMO GAP               2.983770827199 eV   |
           -------------------------------------------------

------------------------------------------------------------------------
 * finished run on 2025/05/15 at 16:30:32.130     
------------------------------------------------------------------------
 total:
 * wall-time:     0 d,  0 h,  0 min,  1.687 sec
 *  cpu-time:     0 d,  0 h,  0 min,  1.085 sec
 * ratio c/w:     0.643 speedup
 SCF:
 * wall-time:     0 d,  0 h,  0 min,  0.076 sec
 *  cpu-time:     0 d,  0 h,  0 min,  0.066 sec
 * ratio c/w:     0.876 speedup
 ANC optimizer:
 * wall-time:     0 d,  0 h,  0 min,  1.597 sec
 *  cpu-time:     0 d,  0 h,  0 min,  1.006 sec
 * ratio c/w:     0.630 speedup



----- Single-point -----
      -----------------------------------------------------------      
     |                   =====================                   |     
     |                           x T B                           |     
     |                   =====================                   |     
     |                         S. Grimme                         |     
     |          Mulliken Center for Theoretical Chemistry        |     
     |                    University of Bonn                     |     
      -----------------------------------------------------------      

   * xtb version 6.7.1 (edcfbbe) compiled by 'conda@3ef47c1a292c' on 2024-11-25

   xtb is free software: you can redistribute it and/or modify it under
   the terms of the GNU Lesser General Public License as published by
   the Free Software Foundation, either version 3 of the License, or
   (at your option) any later version.
   
   xtb is distributed in the hope that it will be useful,
   but WITHOUT ANY WARRANTY; without even the implied warranty of
   MERCHANTABILITY or FITNESS FOR A PARTICULAR PURPOSE.  See the
   GNU Lesser General Public License for more details.
   
   Cite this work as:
   * C. Bannwarth, E. Caldeweyher, S. Ehlert, A. Hansen, P. Pracht,
     J. Seibert, S. Spicher, S. Grimme, WIREs Comput. Mol. Sci., 2020, 11,
     e01493. DOI: 10.1002/wcms.1493
   
   for GFN2-xTB:
   * C. Bannwarth, S. Ehlert and S. Grimme., J. Chem. Theory Comput., 2019,
     15, 1652-1671. DOI: 10.1021/acs.jctc.8b01176
   for GFN1-xTB:
   * S. Grimme, C. Bannwarth, P. Shushkov, J. Chem. Theory Comput., 2017,
     13, 1989-2009. DOI: 10.1021/acs.jctc.7b00118
   for GFN0-xTB:
   * P. Pracht, E. Caldeweyher, S. Ehlert, S. Grimme, ChemRxiv, 2019, preprint.
     DOI: 10.26434/chemrxiv.8326202.v1
   for GFN-FF:
   * S. Spicher and S. Grimme, Angew. Chem. Int. Ed., 2020, 59, 15665-15673.
     DOI: 10.1002/anie.202004239
   
   for ALPB and GBSA implicit solvation:
   * S. Ehlert, M. Stahn, S. Spicher, S. Grimme, J. Chem. Theory Comput.,
     2021, 17, 4250-4261. DOI: 10.1021/acs.jctc.1c00471
   
   for ddCOSMO and CPCM-X implicit solvation:
   * M. Stahn, S. Ehlert, S. Grimme, J. Phys. Chem. A,
     2023, XX, XXXX-XXXX. DOI: 10.1021/acs.jpca.3c04382
   
   for DFT-D4:
   * E. Caldeweyher, C. Bannwarth and S. Grimme, J. Chem. Phys., 2017,
     147, 034112. DOI: 10.1063/1.4993215
   * E. Caldeweyher, S. Ehlert, A. Hansen, H. Neugebauer, S. Spicher,
     C. Bannwarth and S. Grimme, J. Chem. Phys., 2019, 150, 154122.
     DOI: 10.1063/1.5090222
   * E. Caldeweyher, J.-M. Mewes, S. Ehlert and S. Grimme, Phys. Chem. Chem. Phys.
     2020, 22, 8499-8512. DOI: 10.1039/D0CP00502A
   
   for sTDA-xTB:
   * S. Grimme and C. Bannwarth, J. Chem. Phys., 2016, 145, 054103.
     DOI: 10.1063/1.4959605
   
   in the mass-spec context:
   * V. Asgeirsson, C. Bauer and S. Grimme, Chem. Sci., 2017, 8, 4879.
     DOI: 10.1039/c7sc00601b
   * J. Koopman and S. Grimme, ACS Omega 2019, 4, 12, 15120-15133.
     DOI: 10.1021/acsomega.9b02011
   
   for metadynamics refer to:
   * S. Grimme, J. Chem. Theory Comput., 2019, 155, 2847-2862
     DOI: 10.1021/acs.jctc.9b00143
   
   for SPH calculations refer to:
   * S. Spicher and S. Grimme, J. Chem. Theory Comput., 2021, 17, 1701-1714
     DOI: 10.1021/acs.jctc.0c01306
   
   for ONIOM refer to:
   * C. Plett, A. Katbashev, S. Ehlert, S. Grimme, M. Bursch,
     Phys. Chem. Chem. Phys., 2023, 25, 17860-17868. DOI: 10.1039/D3CP02178E
   
   for DIPRO refer to:
   * J. Kohn, N. Gildemeister, S. Grimme, D. Fazzi, A. Hansen,
     J. Chem. Phys., 2023, just accepted.
   
   for PTB refer to:
   * S. Grimme, M. Mueller, A. Hansen, J. Chem. Phys., 2023, 158, 124111.
     DOI: 10.1063/5.0137838
   
   with help from (in alphabetical order)
   P. Atkinson, C. Bannwarth, F. Bohle, G. Brandenburg, E. Caldeweyher
   M. Checinski, S. Dohm, S. Ehlert, S. Ehrlich, I. Gerasimov, C. Hölzer
   A. Katbashev, J. Kohn, J. Koopman, C. Lavigne, S. Lehtola, F. März, M. Müller,
   F. Musil, H. Neugebauer, J. Pisarek, C. Plett, P. Pracht, F. Pultar,
   J. Seibert, P. Shushkov, S. Spicher, M. Stahn, M. Steiner, T. Strunk,
   J. Stückrath, T. Rose, and J. Unsleber
   
 * started run on 2025/05/15 at 16:30:32.190     
   ID    Z sym.   atoms
    1    6 C      1-3, 5-8, 10, 11, 13, 15, 16, 18-20, 22, 23
    2    8 O      4, 21, 24
    3    7 N      9, 14, 17
    4   16 S      12
    5    1 H      25-43

           -------------------------------------------------
          |                Calculation Setup                |
           -------------------------------------------------

          program call               : xtb /rds/general/user/hgt20/home/callum/QDESCP/Omeprazole_rdkit_conf_16/Omeprazole_rdkit_conf_16.xyz --acc 1 --gfn 2 --chrg 0 --uhf 0 --etemp 300 --input /rds/general/user/hgt20/home/callum/QDESCP/Omeprazole_rdkit_conf_16/Omeprazole_rdkit_conf_16_xtb.inp -P 1
          hostname                   : login-c
          coordinate file            : /rds/general/user/hgt20/home/callum/QDESCP/Omeprazole_rdkit_conf_16/Omeprazole_rdkit_conf_16.xyz
          omp threads                :                     1


           -------------------------------------------------
          |                 G F N 2 - x T B                 |
           -------------------------------------------------

        Reference                      10.1021/acs.jctc.8b01176
      * Hamiltonian:
        H0-scaling (s, p, d)           1.850000    2.230000    2.230000
        zeta-weighting                 0.500000
      * Dispersion:
        s8                             2.700000
        a1                             0.520000
        a2                             5.000000
        s9                             5.000000
      * Repulsion:
        kExp                           1.500000    1.000000
        rExp                           1.000000
      * Coulomb:
        alpha                          2.000000
        third order                    shell-resolved
        anisotropic                    true
        a3                             3.000000
        a5                             4.000000
        cn-shift                       1.200000
        cn-exp                         4.000000
        max-rad                        5.000000

q/qsh data taken from xtbrestart
CAMM data taken from xtbrestart

          ...................................................
          :                      SETUP                      :
          :.................................................:
          :  # basis functions                 121          :
          :  # atomic orbitals                 120          :
          :  # shells                           68          :
          :  # electrons                       126          :
          :  max. iterations                   250          :
          :  Hamiltonian                  GFN2-xTB          :
          :  restarted?                       true          :
          :  GBSA solvation                  false          :
          :  PC potential                    false          :
          :  electronic temp.          300.0000000     K    :
          :  accuracy                    1.0000000          :
          :  -> integral cutoff          0.2500000E+02      :
          :  -> integral neglect         0.1000000E-07      :
          :  -> SCF convergence          0.1000000E-05 Eh   :
          :  -> wf. convergence          0.1000000E-03 e    :
          :  Broyden damping             0.4000000          :
          :  net charge                          0          :
          :  unpaired electrons                  0          :
          ...................................................

 iter      E             dE          RMSdq      gap      omega  full diag
   1    -71.2375790 -0.712376E+02  0.991E-06    2.98       0.0  T
   2    -71.2375790 -0.923706E-12  0.673E-06    2.98    2265.0  T
   3    -71.2375790 -0.426326E-12  0.443E-06    2.98    3445.9  T

   *** convergence criteria satisfied after 3 iterations ***

         #    Occupation            Energy/Eh            Energy/eV
      -------------------------------------------------------------
         1        2.0000           -0.7603470             -20.6901
       ...           ...                  ...                  ...
        57        2.0000           -0.4075875             -11.0910
        58        2.0000           -0.4044490             -11.0056
        59        2.0000           -0.3984939             -10.8436
        60        2.0000           -0.3924124             -10.6781
        61        2.0000           -0.3848555             -10.4725
        62        2.0000           -0.3758532             -10.2275
        63        2.0000           -0.3698461             -10.0640 (HOMO)
        64                         -0.2601946              -7.0803 (LUMO)
        65                         -0.2436627              -6.6304
        66                         -0.2348284              -6.3900
        67                         -0.2094228              -5.6987
        68                         -0.2044783              -5.5641
       ...                                ...                  ...
       120                          0.9173731              24.9630
      -------------------------------------------------------------
                  HL-Gap            0.1096515 Eh            2.9838 eV
             Fermi-level           -0.3150203 Eh           -8.5721 eV

 SCC (total)                   0 d,  0 h,  0 min,  0.094 sec
 SCC setup                      ...        0 min,  0.000 sec (  0.402%)
 Dispersion                     ...        0 min,  0.000 sec (  0.516%)
 classical contributions        ...        0 min,  0.000 sec (  0.170%)
 integral evaluation            ...        0 min,  0.008 sec (  8.802%)
 iterations                     ...        0 min,  0.008 sec (  8.799%)
 molecular gradient             ...        0 min,  0.076 sec ( 81.056%)
 printout                       ...        0 min,  0.000 sec (  0.247%)

         :::::::::::::::::::::::::::::::::::::::::::::::::::::
         ::                     SUMMARY                     ::
         :::::::::::::::::::::::::::::::::::::::::::::::::::::
         :: total energy             -70.310435469710 Eh    ::
         :: gradient norm              0.000510118623 Eh/a0 ::
         :: HOMO-LUMO gap              2.983768349176 eV    ::
         ::.................................................::
         :: SCC energy               -71.237865002628 Eh    ::
         :: -> isotropic ES            0.091790033045 Eh    ::
         :: -> anisotropic ES          0.006345586169 Eh    ::
         :: -> anisotropic XC          0.029658139816 Eh    ::
         :: -> dispersion             -0.047370356002 Eh    ::
         :: repulsion energy           0.927429532918 Eh    ::
         :: add. restraining           0.000000000000 Eh    ::
         :: total charge              -0.000000000000 e     ::
         :::::::::::::::::::::::::::::::::::::::::::::::::::::

           -------------------------------------------------
          |                Property Printout                |
           -------------------------------------------------

    * Orbital Energies and Occupations

         #    Occupation            Energy/Eh            Energy/eV
      -------------------------------------------------------------
         1        2.0000           -0.7603470             -20.6901
       ...           ...                  ...                  ...
        51        2.0000           -0.4551184             -12.3844
        52        2.0000           -0.4491640             -12.2224
        53        2.0000           -0.4428948             -12.0518
        54        2.0000           -0.4365729             -11.8798
        55        2.0000           -0.4226396             -11.5006
        56        2.0000           -0.4169792             -11.3466
        57        2.0000           -0.4075875             -11.0910
        58        2.0000           -0.4044490             -11.0056
        59        2.0000           -0.3984939             -10.8436
        60        2.0000           -0.3924124             -10.6781
        61        2.0000           -0.3848555             -10.4725
        62        2.0000           -0.3758532             -10.2275
        63        2.0000           -0.3698461             -10.0640 (HOMO)
        64                         -0.2601946              -7.0803 (LUMO)
        65                         -0.2436627              -6.6304
        66                         -0.2348284              -6.3900
        67                         -0.2094228              -5.6987
        68                         -0.2044783              -5.5641
        69                         -0.1833773              -4.9900
        70                         -0.1693208              -4.6075
        71                         -0.1185716              -3.2265
        72                         -0.0850446              -2.3142
        73                         -0.0464743              -1.2646
        74                         -0.0001895              -0.0052
       ...                                ...                  ...
       120                          0.9173731              24.9630
      -------------------------------------------------------------
                  HL-Gap            0.1096515 Eh            2.9838 eV
             Fermi-level           -0.3150203 Eh           -8.5721 eV

     #   Z          covCN         q      C6AA      α(0)
     1   6 C        3.757    -0.104    22.543     6.770
     2   6 C        2.958    -0.016    28.403     8.741
     3   6 C        2.894     0.135    25.044     8.205
     4   8 O        1.703    -0.307    19.115     5.903
     5   6 C        3.656     0.045    20.101     6.436
     6   6 C        2.961    -0.023    28.570     8.767
     7   6 C        3.757    -0.115    22.761     6.802
     8   6 C        2.912     0.042    27.058     8.530
     9   7 N        1.842    -0.235    26.994     7.700
    10   6 C        3.001     0.078    26.242     8.403
    11   6 C        3.801    -0.090    22.226     6.712
    12  16 S        2.871     0.413   125.351    18.844
    13   6 C        3.205     0.106    25.101     8.160
    14   7 N        1.893    -0.291    28.390     7.899
    15   6 C        3.219     0.069    25.786     8.258
    16   6 C        3.099     0.034    27.115     8.533
    17   7 N        2.798    -0.110    23.392     7.183
    18   6 C        2.907    -0.052    29.294     8.875
    19   6 C        2.924    -0.069    29.709     8.939
    20   6 C        2.866     0.137    25.005     8.197
    21   8 O        1.706    -0.269    18.452     5.800
    22   6 C        3.642     0.037    20.295     6.477
    23   6 C        2.911    -0.068    29.693     8.935
    24   8 O        0.860    -0.485    23.463     6.494
    25   1 H        0.924     0.047     2.361     2.403
    26   1 H        0.925     0.059     2.211     2.325
    27   1 H        0.925     0.048     2.345     2.395
    28   1 H        0.924     0.032     2.555     2.500
    29   1 H        0.924     0.034     2.536     2.490
    30   1 H        0.925     0.058     2.221     2.330
    31   1 H        0.924     0.054     2.273     2.357
    32   1 H        0.925     0.065     2.137     2.286
    33   1 H        0.925     0.054     2.274     2.358
    34   1 H        0.925     0.046     2.373     2.409
    35   1 H        0.925     0.086     1.921     2.167
    36   1 H        0.925     0.075     2.028     2.227
    37   1 H        0.860     0.191     1.153     1.682
    38   1 H        0.926     0.038     2.472     2.459
    39   1 H        0.926     0.042     2.416     2.431
    40   1 H        0.924     0.040     2.454     2.450
    41   1 H        0.925     0.063     2.163     2.300
    42   1 H        0.924     0.040     2.452     2.449
    43   1 H        0.926     0.065     2.147     2.291

 Mol. C6AA /au·bohr⁶  :      23682.304212
 Mol. C8AA /au·bohr⁸  :     592308.214578
 Mol. α(0) /au        :        239.873931


Wiberg/Mayer (AO) data.
largest (>0.10) Wiberg bond orders for each atom

[...]
   * M. Stahn, S. Ehlert, S. Grimme, J. Phys. Chem. A,
     2023, XX, XXXX-XXXX. DOI: 10.1021/acs.jpca.3c04382
   
   for DFT-D4:
   * E. Caldeweyher, C. Bannwarth and S. Grimme, J. Chem. Phys., 2017,
     147, 034112. DOI: 10.1063/1.4993215
   * E. Caldeweyher, S. Ehlert, A. Hansen, H. Neugebauer, S. Spicher,
     C. Bannwarth and S. Grimme, J. Chem. Phys., 2019, 150, 154122.
     DOI: 10.1063/1.5090222
   * E. Caldeweyher, J.-M. Mewes, S. Ehlert and S. Grimme, Phys. Chem. Chem. Phys.
     2020, 22, 8499-8512. DOI: 10.1039/D0CP00502A
   
   for sTDA-xTB:
   * S. Grimme and C. Bannwarth, J. Chem. Phys., 2016, 145, 054103.
     DOI: 10.1063/1.4959605
   
   in the mass-spec context:
   * V. Asgeirsson, C. Bauer and S. Grimme, Chem. Sci., 2017, 8, 4879.
     DOI: 10.1039/c7sc00601b
   * J. Koopman and S. Grimme, ACS Omega 2019, 4, 12, 15120-15133.
     DOI: 10.1021/acsomega.9b02011
   
   for metadynamics refer to:
   * S. Grimme, J. Chem. Theory Comput., 2019, 155, 2847-2862
     DOI: 10.1021/acs.jctc.9b00143
   
   for SPH calculations refer to:
   * S. Spicher and S. Grimme, J. Chem. Theory Comput., 2021, 17, 1701-1714
     DOI: 10.1021/acs.jctc.0c01306
   
   for ONIOM refer to:
   * C. Plett, A. Katbashev, S. Ehlert, S. Grimme, M. Bursch,
     Phys. Chem. Chem. Phys., 2023, 25, 17860-17868. DOI: 10.1039/D3CP02178E
   
   for DIPRO refer to:
   * J. Kohn, N. Gildemeister, S. Grimme, D. Fazzi, A. Hansen,
     J. Chem. Phys., 2023, just accepted.
   
   for PTB refer to:
   * S. Grimme, M. Mueller, A. Hansen, J. Chem. Phys., 2023, 158, 124111.
     DOI: 10.1063/5.0137838
   
   with help from (in alphabetical order)
   P. Atkinson, C. Bannwarth, F. Bohle, G. Brandenburg, E. Caldeweyher
   M. Checinski, S. Dohm, S. Ehlert, S. Ehrlich, I. Gerasimov, C. Hölzer
   A. Katbashev, J. Kohn, J. Koopman, C. Lavigne, S. Lehtola, F. März, M. Müller,
   F. Musil, H. Neugebauer, J. Pisarek, C. Plett, P. Pracht, F. Pultar,
   J. Seibert, P. Shushkov, S. Spicher, M. Stahn, M. Steiner, T. Strunk,
   J. Stückrath, T. Rose, and J. Unsleber
   
 * started run on 2025/05/15 at 16:30:34.790     
   ID    Z sym.   atoms
    1    6 C      1-3, 5-8, 10, 11, 13, 15, 16, 18-20, 22, 23
    2    8 O      4, 21, 24
    3    7 N      9, 14, 17
    4   16 S      12
    5    1 H      25-43

           -------------------------------------------------
          |                Calculation Setup                |
           -------------------------------------------------

          program call               : xtb /rds/general/user/hgt20/home/callum/QDESCP/Omeprazole_rdkit_conf_16/Omeprazole_rdkit_conf_16.xyz --acc 1 --gfn 2 --chrg 0 --uhf 2 --etemp 300 --input /rds/general/user/hgt20/home/callum/QDESCP/Omeprazole_rdkit_conf_16/Omeprazole_rdkit_conf_16_xtb.inp -P 1
          hostname                   : login-c
          coordinate file            : /rds/general/user/hgt20/home/callum/QDESCP/Omeprazole_rdkit_conf_16/Omeprazole_rdkit_conf_16.xyz
          omp threads                :                     1


           -------------------------------------------------
          |                 G F N 2 - x T B                 |
           -------------------------------------------------

        Reference                      10.1021/acs.jctc.8b01176
      * Hamiltonian:
        H0-scaling (s, p, d)           1.850000    2.230000    2.230000
        zeta-weighting                 0.500000
      * Dispersion:
        s8                             2.700000
        a1                             0.520000
        a2                             5.000000
        s9                             5.000000
      * Repulsion:
        kExp                           1.500000    1.000000
        rExp                           1.000000
      * Coulomb:
        alpha                          2.000000
        third order                    shell-resolved
        anisotropic                    true
        a3                             3.000000
        a5                             4.000000
        cn-shift                       1.200000
        cn-exp                         4.000000
        max-rad                        5.000000


          ...................................................
          :                      SETUP                      :
          :.................................................:
          :  # basis functions                 121          :
          :  # atomic orbitals                 120          :
          :  # shells                           68          :
          :  # electrons                       126          :
          :  max. iterations                   250          :
          :  Hamiltonian                  GFN2-xTB          :
          :  restarted?                      false          :
          :  GBSA solvation                  false          :
          :  PC potential                    false          :
          :  electronic temp.          300.0000000     K    :
          :  accuracy                    1.0000000          :
          :  -> integral cutoff          0.2500000E+02      :
          :  -> integral neglect         0.1000000E-07      :
          :  -> SCF convergence          0.1000000E-05 Eh   :
          :  -> wf. convergence          0.1000000E-03 e    :
          :  Broyden damping             0.4000000          :
          :  net charge                          0          :
          :  unpaired electrons                  2          :
          ...................................................

 iter      E             dE          RMSdq      gap      omega  full diag
   1    -70.9569761 -0.709570E+02  0.440E+00    0.44       0.0  T
   2    -70.8792118  0.777642E-01  0.301E+00    0.32       1.0  T
   3    -70.7012935  0.177918E+00  0.252E+00    1.04       1.0  T
   4    -71.0556296 -0.354336E+00  0.131E+00    0.37       1.0  T
   5    -71.0400807  0.155490E-01  0.117E+00    0.26       1.0  T
   6    -71.0628619 -0.227812E-01  0.850E-01    0.25       1.0  T
   7    -70.9613104  0.101551E+00  0.114E+00    0.63       1.0  T
   8    -71.0949857 -0.133675E+00  0.640E-01    0.34       1.0  T
   9    -71.0206537  0.743320E-01  0.965E-01    0.35       1.0  T
  10    -71.0989065 -0.782529E-01  0.432E-01    0.24       1.0  T
  11    -71.1104695 -0.115629E-01  0.299E-01    0.28       1.0  T
  12    -71.1148176 -0.434813E-02  0.156E-01    0.25       1.0  T
  13    -71.1151317 -0.314124E-03  0.127E-01    0.27       1.0  T
  14    -71.1165300 -0.139833E-02  0.706E-02    0.26       1.0  T
  15    -71.1153004  0.122962E-02  0.110E-01    0.27       1.0  T
  16    -71.1158913 -0.590850E-03  0.887E-02    0.25       1.0  T
  17    -71.1168455 -0.954232E-03  0.227E-02    0.26       1.0  T
  18    -71.1168743 -0.288130E-04  0.169E-02    0.26       1.0  T
  19    -71.1169057 -0.313628E-04  0.604E-03    0.26       2.5  T
  20    -71.1169087 -0.301961E-05  0.322E-03    0.26       4.7  T
  21    -71.1169091 -0.391613E-06  0.275E-03    0.26       5.5  T
  22    -71.1169101 -0.960112E-06  0.147E-04    0.26     103.9  T
  23    -71.1169101 -0.141966E-09  0.125E-04    0.26     121.8  T

   *** convergence criteria satisfied after 23 iterations ***

         #    Occupation            Energy/Eh            Energy/eV
      -------------------------------------------------------------
         1        2.0000           -0.7509984             -20.4357
       ...           ...                  ...                  ...
        58        2.0000           -0.3985050             -10.8439
        59        2.0000           -0.3927812             -10.6881
        60        1.9891           -0.3822637             -10.4019
        61        1.8867           -0.3799323             -10.3385
        62        1.7509           -0.3790265             -10.3138
        63        1.3733           -0.3774856             -10.2719
        64        0.9934           -0.2510232              -6.8307 (HOMO)
        65        0.0066           -0.2415070              -6.5717 (LUMO)
        66        0.0000           -0.2314821              -6.2989
        67                         -0.2078167              -5.6550
        68                         -0.1996380              -5.4324
        69                         -0.1712371              -4.6596
       ...                                ...                  ...
       120                          0.9239997              25.1433
      -------------------------------------------------------------
                  HL-Gap            0.0095162 Eh            0.2589 eV
             Fermi-level           -0.3121215 Eh           -8.4933 eV

 transition dipole moment (au) for excitation:          63          64
     X       Y       Z   
   1.6404   0.6132   0.0971  total (au/Debye):    1.754   4.458
 dE (eV)             :    3.441
 oscillator strength :  0.36680E+00

 SCC (total)                   0 d,  0 h,  0 min,  0.126 sec
 SCC setup                      ...        0 min,  0.000 sec (  0.300%)
 Dispersion                     ...        0 min,  0.000 sec (  0.386%)
 classical contributions        ...        0 min,  0.000 sec (  0.121%)
 integral evaluation            ...        0 min,  0.008 sec (  6.572%)
 iterations                     ...        0 min,  0.084 sec ( 66.726%)
 molecular gradient             ...        0 min,  0.025 sec ( 19.613%)
 printout                       ...        0 min,  0.008 sec (  6.276%)

         :::::::::::::::::::::::::::::::::::::::::::::::::::::
         ::                     SUMMARY                     ::
         :::::::::::::::::::::::::::::::::::::::::::::::::::::
         :: total energy             -70.189766556206 Eh    ::
         :: gradient norm              0.099290141570 Eh/a0 ::
         :: HOMO-LUMO gap              0.258949439135 eV    ::
         ::.................................................::
         :: SCC energy               -71.117196089124 Eh    ::
         :: -> isotropic ES            0.087086998405 Eh    ::
         :: -> anisotropic ES          0.005520248563 Eh    ::
         :: -> anisotropic XC          0.025403632515 Eh    ::
         :: -> dispersion             -0.047371870036 Eh    ::
         :: repulsion energy           0.927429532918 Eh    ::
         :: add. restraining           0.000000000000 Eh    ::
         :: total charge               0.000000000004 e     ::
         :::::::::::::::::::::::::::::::::::::::::::::::::::::

           -------------------------------------------------
          |                Property Printout                |
           -------------------------------------------------

    * Orbital Energies and Occupations

         #    Occupation            Energy/Eh            Energy/eV
      -------------------------------------------------------------
         1        2.0000           -0.7509984             -20.4357
       ...           ...                  ...                  ...
        52        2.0000           -0.4451949             -12.1144
        53        2.0000           -0.4426320             -12.0446
        54        2.0000           -0.4360191             -11.8647
        55        2.0000           -0.4192082             -11.4072
        56        2.0000           -0.4137963             -11.2600
        57        2.0000           -0.4041141             -10.9965
        58        2.0000           -0.3985050             -10.8439
        59        2.0000           -0.3927812             -10.6881
        60        1.9891           -0.3822637             -10.4019
        61        1.8867           -0.3799323             -10.3385
        62        1.7509           -0.3790265             -10.3138
        63        1.3733           -0.3774856             -10.2719
        64        0.9934           -0.2510232              -6.8307 (HOMO)
        65        0.0066           -0.2415070              -6.5717 (LUMO)
        66        0.0000           -0.2314821              -6.2989
        67                         -0.2078167              -5.6550
        68                         -0.1996380              -5.4324
        69                         -0.1712371              -4.6596
        70                         -0.1625331              -4.4228
        71                         -0.1159909              -3.1563
        72                         -0.0833204              -2.2673
        73                         -0.0386363              -1.0513
        74                          0.0064756               0.1762
        75                          0.0165351               0.4499
       ...                                ...                  ...
       120                          0.9239997              25.1433
      -------------------------------------------------------------
                  HL-Gap            0.0095162 Eh            0.2589 eV
             Fermi-level           -0.3121215 Eh           -8.4933 eV

     #   Z          covCN         q      C6AA      α(0)
     1   6 C        3.757    -0.103    22.516     6.765
     2   6 C        2.958    -0.022    28.548     8.764
     3   6 C        2.894     0.125    25.256     8.240
     4   8 O        1.703    -0.307    19.114     5.903
     5   6 C        3.656     0.045    20.112     6.438
     6   6 C        2.961    -0.017    28.428     8.745
     7   6 C        3.757    -0.115    22.748     6.800
     8   6 C        2.912     0.040    27.097     8.536
     9   7 N        1.842    -0.200    26.162     7.580
    10   6 C        3.001     0.062    26.588     8.458
    11   6 C        3.801    -0.087    22.167     6.703
    12  16 S        2.871     0.381   126.485    18.929
    13   6 C        3.205     0.080    25.655     8.250
    14   7 N        1.893    -0.304    28.720     7.945
    15   6 C        3.219     0.072    25.713     8.246
    16   6 C        3.099     0.054    26.666     8.462
    17   7 N        2.798    -0.111    23.423     7.188
    18   6 C        2.907    -0.065    29.616     8.924
    19   6 C        2.924    -0.079    29.984     8.980
    20   6 C        2.866     0.149    24.767     8.158
    21   8 O        1.706    -0.237    17.924     5.716
    22   6 C        3.642     0.032    20.388     6.492
    23   6 C        2.911    -0.078    29.958     8.975
    24   8 O        0.860    -0.470    23.122     6.447
    25   1 H        0.924     0.045     2.378     2.412
    26   1 H        0.925     0.060     2.195     2.317
    27   1 H        0.925     0.047     2.360     2.403
    28   1 H        0.924     0.031     2.565     2.505
    29   1 H        0.924     0.033     2.544     2.494
    30   1 H        0.925     0.057     2.234     2.338
    31   1 H        0.924     0.056     2.246     2.344
    32   1 H        0.925     0.068     2.108     2.270
    33   1 H        0.925     0.058     2.228     2.334
    34   1 H        0.925     0.050     2.314     2.379
    35   1 H        0.925     0.081     1.970     2.195
    36   1 H        0.925     0.076     2.020     2.223
    37   1 H        0.860     0.188     1.171     1.695
    38   1 H        0.926     0.034     2.530     2.487
    39   1 H        0.926     0.036     2.500     2.472
    40   1 H        0.924     0.051     2.302     2.373
    41   1 H        0.925     0.069     2.096     2.264
    42   1 H        0.924     0.052     2.300     2.372
    43   1 H        0.926     0.061     2.189     2.314

 Mol. C6AA /au·bohr⁶  :      23666.935856
 Mol. C8AA /au·bohr⁸  :     592424.901554
 Mol. α(0) /au        :        239.834124


Wiberg/Mayer (AO) data.
largest (>0.10) Wiberg bond orders for each atom

 ---------------------------------------------------------------------------
     #   Z sym  total        # sym  WBO       # sym  WBO       # sym  WBO
 ---------------------------------------------------------------------------
     1   6 C    3.987 --     2 C    1.025    26 H    0.979    27 H    0.978
                            25 H    0.965
     2   6 C    3.872 --     8 C    1.388     3 C    1.296     1 C    1.025
     3   6 C    3.879 --     6 C    1.403     2 C    1.296     4 O    0.997
     4   8 O    2.098 --     3 C    0.997     5 C    0.972
     5   6 C    3.945 --    28 H    0.980    30 H    0.980    29 H    0.978
                             4 O    0.972
     6   6 C    3.941 --     3 C    1.403    10 C    1.302     7 C    1.029
     7   6 C    3.984 --     6 C    1.029    32 H    0.977    33 H    0.966
                            31 H    0.963
     8   6 C    3.945 --     9 N    1.427     2 C    1.388    34 H    0.956
     9   7 N    2.957 --     8 C    1.427    10 C    1.319
    10   6 C    3.891 --     9 N    1.319     6 C    1.302    11 C    1.063
    11   6 C    3.921 --    10 C    1.063    35 H    0.966    36 H    0.958
                            12 S    0.786
    12  16 S    3.785 --    24 O    1.781    13 C    0.994    11 C    0.786
    13   6 C    3.835 --    14 N    1.437    17 N    1.129    12 S    0.994
    14   7 N    2.934 --    13 C    1.437    15 C    1.231
    15   6 C    3.939 --    23 C    1.334    14 N    1.231    16 C    1.192
    16   6 C    3.884 --    18 C    1.298    17 N    1.208    15 C    1.192
    17   7 N    3.489 --    16 C    1.208    13 C    1.129    37 H    0.932
    18   6 C    3.851 --    19 C    1.409    16 C    1.298    38 H    0.968
    19   6 C    3.885 --    18 C    1.409    20 C    1.320    39 H    0.966
    20   6 C    3.817 --    19 C    1.320    23 C    1.276    21 O    1.095
    21   8 O    2.218 --    20 C    1.095    22 C    0.986
    22   6 C    3.938 --    21 O    0.986    41 H    0.978    40 H    0.971
                            42 H    0.971
    23   6 C    3.801 --    15 C    1.334    20 C    1.276    43 H    0.965
    24   8 O    1.955 --    12 S    1.781
    25   1 H    0.991 --     1 C    0.965
    26   1 H    0.993 --     1 C    0.979
    27   1 H    0.994 --     1 C    0.978
    28   1 H    0.999 --     5 C    0.980
    29   1 H    0.999 --     5 C    0.978
    30   1 H    0.995 --     5 C    0.980
    31   1 H    0.995 --     7 C    0.963
    32   1 H    0.992 --     7 C    0.977
    33   1 H    0.995 --     7 C    0.966
    34   1 H    0.988 --     8 C    0.956
    35   1 H    0.991 --    11 C    0.966
    36   1 H    0.991 --    11 C    0.958
    37   1 H    0.964 --    17 N    0.932
    38   1 H    0.998 --    18 C    0.968
    39   1 H    0.998 --    19 C    0.966
    40   1 H    0.991 --    22 C    0.971
    41   1 H    0.995 --    22 C    0.978
    42   1 H    0.991 --    22 C    0.971
    43   1 H    0.995 --    23 C    0.965
 ---------------------------------------------------------------------------

Topologies differ in total number of bonds
Writing topology from bond orders to xtbtopo.mol

molecular dipole:
                 x           y           z       tot (Debye)
 q only:        0.793      -1.175       0.141
   full:        1.044      -0.937      -0.225       3.612
molecular quadrupole (traceless):
                xx          xy          yy          xz          yz          zz
 q only:       32.773      12.142     -18.486       6.358       3.023     -14.288
  q+dip:       38.834      18.831     -19.501       6.972       1.318     -19.333
   full:       37.661      18.632     -19.085       7.192       4.192     -18.575


           -------------------------------------------------
          | TOTAL ENERGY              -70.189766556206 Eh   |
          | GRADIENT NORM               0.099290141570 Eh/α |
          | HOMO-LUMO GAP               0.258949439135 eV   |
           -------------------------------------------------

------------------------------------------------------------------------
 * finished run on 2025/05/15 at 16:30:34.979     
------------------------------------------------------------------------
 total:
 * wall-time:     0 d,  0 h,  0 min,  0.188 sec
 *  cpu-time:     0 d,  0 h,  0 min,  0.108 sec
 * ratio c/w:     0.575 speedup
 SCF:
 * wall-time:     0 d,  0 h,  0 min,  0.126 sec
 *  cpu-time:     0 d,  0 h,  0 min,  0.096 sec
 * ratio c/w:     0.765 speedup


