43
 energy: -70.310435469691 gnorm: 0.000510194718 xtb: 6.7.1 (edcfbbe)
C           -6.38586824950368       -0.07975202125735       -1.64124147417916
C           -4.90568623454277        0.00380583232848       -1.43616738084342
C           -4.28591051655976       -0.53625300830179       -0.30485555792193
O           -5.04000255469221       -1.16744947391490        0.66936688747520
C           -5.29379174671388       -2.53078201349216        0.40309772088664
C           -2.90718062109199       -0.40172100427221       -0.13123453490907
C           -2.22407764454211       -0.95033335764587        1.08274451084260
C           -4.08180898758211        0.63136606279616       -2.36169437480266
N           -2.77562239279518        0.74248438122769       -2.22937281047528
C           -2.19577523047688        0.25117693125829       -1.14445889129423
C           -0.72623306164163        0.45330612151850       -1.03729034604122
S           -0.38561082655794        1.77850240518931        0.24060131256504
C            1.34451056114047        1.30215906636818        0.41465307308382
N            1.80690622116461        0.16779395683049        0.85269290143414
C            3.17387652632641        0.31045257783859        0.83442738832533
C            3.50642595586783        1.60654859988722        0.36136326142307
N            2.30245074071597        2.21416726425275        0.10944204688985
C            4.82196092712777        2.01210449833150        0.23925792135754
C            5.80612672624233        1.11198813112950        0.59912996879256
C            5.49115954582740       -0.17122666371579        1.07145087343810
O            6.42627511137975       -1.09413054950242        1.44217463767072
C            7.78900299031201       -0.76140045881587        1.34919732505535
C            4.17024070166271       -0.58423314882371        1.19122245828125
O           -0.29161232269717        3.05889376074777       -0.46479176921676
H           -6.63457863230687       -0.91863770692295       -2.29269662665754
H           -6.89080568893389       -0.21664344802528       -0.68787289960665
H           -6.75172732467548        0.82939006723149       -2.11295531079313
H           -4.36215129365791       -3.10458796049396        0.34604222934335
H           -5.84766111267756       -2.66442207646547       -0.53151370759018
H           -5.89375469798094       -2.89452957732467        1.23541902758079
H           -1.57148177096329       -1.78043439808286        0.81037425679083
H           -2.96627786197432       -1.30306926747085        1.79404737742206
H           -1.61190752040855       -0.19077771757240        1.56343704517380
H           -4.49826096509436        1.06679996544421       -3.26058685373470
H           -0.32433596407214        0.81431997419555       -1.98093970421937
H           -0.20518369291704       -0.43233409282655       -0.68264928847420
H            2.10678109243307        3.13343923111692       -0.25503025490063
H            5.07818552270576        2.99622251084563       -0.12186221817171
H            6.83609783282477        1.41728946782331        0.51013622028427
H            8.08284002922077       -0.54185923341484        0.31727545761089
H            8.32876104096589       -1.64186848231400        1.69472007721740
H            8.04325125531515        0.08980056972582        1.98962664404300
H            3.94245413382853       -1.57126571543196        1.55501338084437
