57
 energy: -87.643689987160 gnorm: 0.000292658672 xtb: 6.7.1 (edcfbbe)
O            2.92528700311386        1.73690610877962        1.05818422538047
C            3.48717372373734        0.79635937895874        0.52231745605034
C            2.89639713552098       -0.12291918671232       -0.42222459133616
C            1.44643869442486        0.09414822973786       -0.73377809111464
C            0.57389600536799       -0.63484491351483        0.29896999524688
N           -0.81903796523659       -0.67216668226972       -0.10551173950548
C           -1.55974648818545       -1.72326910809224        0.56746063574669
C           -2.95781164179343       -1.85082373650431       -0.02782899573058
C           -3.71157056044979       -0.53244833981980        0.12359060008899
C           -2.87626162176632        0.57369837054254       -0.53448508446469
C           -1.48171076990551        0.60482702869462        0.08108780812689
C           -5.06419406011778       -0.58022901326445       -0.49391033869676
N           -5.40203916073051       -1.43953147634219       -1.40534647021563
O           -6.69455084941224       -1.20458018960130       -1.79504498939746
C           -7.16562959709285       -0.16002043921519       -1.09488860128148
C           -6.16227389365321        0.30587069019958       -0.22326136015730
C           -6.40730271193380        1.38722616522944        0.62014562072199
C           -7.64884467571849        1.97656673483573        0.56842836850645
C           -8.62099575446677        1.48950425354853       -0.30976158382950
F           -9.81991149163723        2.10253316826262       -0.31886007551935
C           -8.42352840548215        0.42279345002211       -1.15932886648841
C            3.64788578813642       -1.13643502332367       -0.94550400866330
N            4.95662648932263       -1.31136803721512       -0.61720520189115
C            5.49634292248355       -0.49529027183697        0.22450747010969
N            4.83433721055269        0.53035586704959        0.80399333384507
C            5.57437266278718        1.40935571191828        1.68206315303532
C            6.84128108950313        1.87601171998523        0.96777666928418
C            7.68113377931573        0.68184976616451        0.48015191186948
C            6.92542994013065       -0.64725766374926        0.62837144420566
C            3.11406765872925       -2.13067659172010       -1.92770289889721
H            1.25074423179858        1.16595182188490       -0.68607329167418
H            1.19616185911529       -0.27363780790081       -1.72779938671419
H            0.70780237659868       -0.15657297523293        1.28393005877353
H            0.92499275938338       -1.66766667107086        0.37943426335431
H           -1.02234868363303       -2.66510575704390        0.43135620724512
H           -1.63780227497523       -1.53008003330986        1.65498413255787
H           -2.88348476113996       -2.09302834909140       -1.08706033871623
H           -3.49973056786814       -2.65562687086069        0.46993891359905
H           -3.82947320789130       -0.29552153266489        1.18850900489554
H           -3.35727839657460        1.54560257906971       -0.40822073527718
H           -2.79062181067818        0.36275501693531       -1.60111217694226
H           -1.55684612139277        0.86216824463173        1.15520840555880
H           -0.89100095017668        1.37966578835137       -0.40877174156499
H           -5.64574186509466        1.74912621479950        1.29239818996597
H           -7.89749843667292        2.81665976752038        1.19700986630088
H           -9.19457695669379        0.07098326405134       -1.82274850883574
H            4.91572738106253        2.24778313780702        1.92218128570242
H            5.82431916191979        0.87978323255782        2.60734365688914
H            6.54211985477886        2.49104024776713        0.11745569098561
H            7.41762160171931        2.50544654384917        1.64529115519002
H            8.61399997905767        0.61519877393765        1.04072462468459
H            7.93931923657776        0.82169772904171       -0.56987323546488
H            6.95295597288813       -0.96750556971363        1.67377158982045
H            7.38239456469994       -1.42716779353655        0.02179124339176
H            2.86152126568439       -1.63699869277940       -2.86485459292308
H            2.21585433346776       -2.61016543058811       -1.54635401864716
H            3.87540899849795       -2.88123084914032       -2.11776605722778
