50
 energy: -70.097936954080 gnorm: 0.000325439996 xtb: 6.7.1 (edcfbbe)
O           -0.13324541633422       -1.77022909896766       -2.60573844599058
C            0.16087775762865       -1.08394203585833       -1.41052497283804
C           -0.96439122581099       -1.34349377271157       -0.38331112765325
N           -2.26933064702704       -1.20049575084591       -1.03280634863516
C           -3.25681961362320       -1.87886503989977       -0.20138097938809
C           -3.15149515476445       -1.40215916433726        1.26497622818309
C           -2.63838076091434        0.20570510733932       -1.16594051635092
C           -3.00422475568266        0.80897115712790        0.20439443876468
C           -2.74915868385005        2.31744944045088        0.32082325593412
C           -1.30334768322900        2.79722807518679        0.28085136309255
C           -2.34081760746665       -0.09712321752296        1.25752670282767
C           -0.89928902427465       -0.45954906648691        0.87129937396423
C            1.46832079704599       -1.59611745953634       -0.85386790515598
C            1.67334231142827       -2.95661519136428       -0.85936289601088
C            2.84755186650225       -3.48841495589328       -0.31412934316629
N            3.78660577831582       -2.75841187100407        0.22023868460200
C            3.63087420509607       -1.42315645703227        0.22511113330644
C            2.48300720633776       -0.76649466314918       -0.30826090173816
C            2.43930631970152        0.64476503769680       -0.27329746398730
C            3.47457772383618        1.37014014764434        0.26339756578799
O            3.53803203465919        2.72818343048455        0.32676842129646
C            2.48681084088411        3.48471793746613       -0.22023216954377
C            4.59883457385388        0.70697847493211        0.80803297388007
C            4.67230250736864       -0.65003836166073        0.78686011386263
H           -1.09969984534484       -1.78568256461900       -2.68159005317274
H            0.22861582940725       -0.00832168622387       -1.62932380884608
H           -0.88205790258529       -2.39984567181924       -0.10318053426344
H           -4.24367993267289       -1.66498329666926       -0.61680103899650
H           -3.08765022836506       -2.95581530876688       -0.27813885679607
H           -4.14309580908293       -1.23657051210099        1.68782977293718
H           -2.64444648764821       -2.14711077257917        1.88027582839750
H           -3.48537299619254        0.26705672494026       -1.85568945884842
H           -1.80461306439970        0.73906011710281       -1.62200423548680
H           -4.08730934299179        0.69979493520211        0.34312971741736
H           -3.29638709675380        2.79863682342914       -0.49489005405224
H           -3.19607367202548        2.66054635622612        1.25765627835799
H           -1.28595571049056        3.88560238707372        0.25961129001327
H           -0.76001727143868        2.47112657187910        1.16451569916210
H           -0.79219426102211        2.44062235831507       -0.61052199740356
H           -2.36245674618813        0.37729973057415        2.24207720416598
H           -0.41799849001783       -0.99715012321462        1.69003616644957
H           -0.31174531813378        0.43361615708160        0.67830163900680
H            0.93365420838980       -3.60880276758482       -1.29629937838546
H            3.01600238136595       -4.55791022282159       -0.31042177941774
H            1.58783923027078        1.15283500341490       -0.69529504602979
H            2.77292146118777        4.52677861098532       -0.08658328765102
H            1.54368858750470        3.30047325579746        0.30366903498232
H            2.35723476414033        3.28060496223279       -1.28814555458048
H            5.38631245228775        1.31571477650064        1.22357969950990
H            5.52444191111532       -1.17670854641429        1.18597556848828
