----- Optimization -----
      -----------------------------------------------------------      
     |                   =====================                   |     
     |                           x T B                           |     
     |                   =====================                   |     
     |                         S. Grimme                         |     
     |          Mulliken Center for Theoretical Chemistry        |     
     |                    University of Bonn                     |     
      -----------------------------------------------------------      

   * xtb version 6.7.1 (edcfbbe) compiled by 'conda@3ef47c1a292c' on 2024-11-25

   xtb is free software: you can redistribute it and/or modify it under
   the terms of the GNU Lesser General Public License as published by
   the Free Software Foundation, either version 3 of the License, or
   (at your option) any later version.
   
   xtb is distributed in the hope that it will be useful,
   but WITHOUT ANY WARRANTY; without even the implied warranty of
   MERCHANTABILITY or FITNESS FOR A PARTICULAR PURPOSE.  See the
   GNU Lesser General Public License for more details.
   
   Cite this work as:
   * C. Bannwarth, E. Caldeweyher, S. Ehlert, A. Hansen, P. Pracht,
     J. Seibert, S. Spicher, S. Grimme, WIREs Comput. Mol. Sci., 2020, 11,
     e01493. DOI: 10.1002/wcms.1493
   
   for GFN2-xTB:
   * C. Bannwarth, S. Ehlert and S. Grimme., J. Chem. Theory Comput., 2019,
     15, 1652-1671. DOI: 10.1021/acs.jctc.8b01176
   for GFN1-xTB:
   * S. Grimme, C. Bannwarth, P. Shushkov, J. Chem. Theory Comput., 2017,
     13, 1989-2009. DOI: 10.1021/acs.jctc.7b00118
   for GFN0-xTB:
   * P. Pracht, E. Caldeweyher, S. Ehlert, S. Grimme, ChemRxiv, 2019, preprint.
     DOI: 10.26434/chemrxiv.8326202.v1
   for GFN-FF:
   * S. Spicher and S. Grimme, Angew. Chem. Int. Ed., 2020, 59, 15665-15673.
     DOI: 10.1002/anie.202004239
   
   for ALPB and GBSA implicit solvation:
   * S. Ehlert, M. Stahn, S. Spicher, S. Grimme, J. Chem. Theory Comput.,
     2021, 17, 4250-4261. DOI: 10.1021/acs.jctc.1c00471
   
   for ddCOSMO and CPCM-X implicit solvation:
   * M. Stahn, S. Ehlert, S. Grimme, J. Phys. Chem. A,
     2023, XX, XXXX-XXXX. DOI: 10.1021/acs.jpca.3c04382
   
   for DFT-D4:
   * E. Caldeweyher, C. Bannwarth and S. Grimme, J. Chem. Phys., 2017,
     147, 034112. DOI: 10.1063/1.4993215
   * E. Caldeweyher, S. Ehlert, A. Hansen, H. Neugebauer, S. Spicher,
     C. Bannwarth and S. Grimme, J. Chem. Phys., 2019, 150, 154122.
     DOI: 10.1063/1.5090222
   * E. Caldeweyher, J.-M. Mewes, S. Ehlert and S. Grimme, Phys. Chem. Chem. Phys.
     2020, 22, 8499-8512. DOI: 10.1039/D0CP00502A
   
   for sTDA-xTB:
   * S. Grimme and C. Bannwarth, J. Chem. Phys., 2016, 145, 054103.
     DOI: 10.1063/1.4959605
   
   in the mass-spec context:
   * V. Asgeirsson, C. Bauer and S. Grimme, Chem. Sci., 2017, 8, 4879.
     DOI: 10.1039/c7sc00601b
   * J. Koopman and S. Grimme, ACS Omega 2019, 4, 12, 15120-15133.
     DOI: 10.1021/acsomega.9b02011
   
   for metadynamics refer to:
   * S. Grimme, J. Chem. Theory Comput., 2019, 155, 2847-2862
     DOI: 10.1021/acs.jctc.9b00143
   
   for SPH calculations refer to:
   * S. Spicher and S. Grimme, J. Chem. Theory Comput., 2021, 17, 1701-1714
     DOI: 10.1021/acs.jctc.0c01306
   
   for ONIOM refer to:
   * C. Plett, A. Katbashev, S. Ehlert, S. Grimme, M. Bursch,
     Phys. Chem. Chem. Phys., 2023, 25, 17860-17868. DOI: 10.1039/D3CP02178E
   
   for DIPRO refer to:
   * J. Kohn, N. Gildemeister, S. Grimme, D. Fazzi, A. Hansen,
     J. Chem. Phys., 2023, just accepted.
   
   for PTB refer to:
   * S. Grimme, M. Mueller, A. Hansen, J. Chem. Phys., 2023, 158, 124111.
     DOI: 10.1063/5.0137838
   
   with help from (in alphabetical order)
   P. Atkinson, C. Bannwarth, F. Bohle, G. Brandenburg, E. Caldeweyher
   M. Checinski, S. Dohm, S. Ehlert, S. Ehrlich, I. Gerasimov, C. Hölzer
   A. Katbashev, J. Kohn, J. Koopman, C. Lavigne, S. Lehtola, F. März, M. Müller,
   F. Musil, H. Neugebauer, J. Pisarek, C. Plett, P. Pracht, F. Pultar,
   J. Seibert, P. Shushkov, S. Spicher, M. Stahn, M. Steiner, T. Strunk,
   J. Stückrath, T. Rose, and J. Unsleber
   
 * started run on 2025/05/15 at 16:17:01.645     
   ID    Z sym.   atoms
    1    8 O      1, 21
    2    6 C      2, 3, 5-15, 17-20, 22-24
    3    7 N      4, 16
    4    1 H      25-50

           -------------------------------------------------
          |                Calculation Setup                |
           -------------------------------------------------

          program call               : xtb /rds/general/user/hgt20/home/callum/QDESCP/Hydroquinine_rdkit_conf_10/Hydroquinine_rdkit_conf_10.xyz --opt normal --acc 1 --gfn 2 --chrg 0 --uhf 0 -P 1
          hostname                   : login-c
          coordinate file            : /rds/general/user/hgt20/home/callum/QDESCP/Hydroquinine_rdkit_conf_10/Hydroquinine_rdkit_conf_10.xyz
          omp threads                :                     1


           -------------------------------------------------
          |                 G F N 2 - x T B                 |
           -------------------------------------------------

        Reference                      10.1021/acs.jctc.8b01176
      * Hamiltonian:
        H0-scaling (s, p, d)           1.850000    2.230000    2.230000
        zeta-weighting                 0.500000
      * Dispersion:
        s8                             2.700000
        a1                             0.520000
        a2                             5.000000
        s9                             5.000000
      * Repulsion:
        kExp                           1.500000    1.000000
        rExp                           1.000000
      * Coulomb:
        alpha                          2.000000
        third order                    shell-resolved
        anisotropic                    true
        a3                             3.000000
        a5                             4.000000
        cn-shift                       1.200000
        cn-exp                         4.000000
        max-rad                        5.000000


          ...................................................
          :                      SETUP                      :
          :.................................................:
          :  # basis functions                 122          :
          :  # atomic orbitals                 122          :
          :  # shells                           74          :
          :  # electrons                       128          :
          :  max. iterations                   250          :
          :  Hamiltonian                  GFN2-xTB          :
          :  restarted?                      false          :
          :  GBSA solvation                  false          :
          :  PC potential                    false          :
          :  electronic temp.          300.0000000     K    :
          :  accuracy                    1.0000000          :
          :  -> integral cutoff          0.2500000E+02      :
          :  -> integral neglect         0.1000000E-07      :
          :  -> SCF convergence          0.1000000E-05 Eh   :
          :  -> wf. convergence          0.1000000E-03 e    :
          :  Broyden damping             0.4000000          :
          :  net charge                          0          :
          :  unpaired electrons                  0          :
          ...................................................

 iter      E             dE          RMSdq      gap      omega  full diag
   1    -70.9339610 -0.709340E+02  0.357E+00    2.52       0.0  T
   2    -71.0081115 -0.741505E-01  0.211E+00    2.48       1.0  T
   3    -71.0020137  0.609780E-02  0.819E-01    2.34       1.0  T
   4    -71.0097104 -0.769670E-02  0.358E-01    2.28       1.0  T
   5    -71.0145835 -0.487316E-02  0.935E-02    2.24       1.0  T
   6    -71.0147865 -0.203030E-03  0.533E-02    2.27       1.0  T
   7    -71.0148430 -0.564352E-04  0.251E-02    2.25       1.0  T
   8    -71.0148577 -0.147090E-04  0.930E-03    2.26       1.5  T
   9    -71.0148589 -0.117092E-05  0.272E-03    2.26       5.2  T
  10    -71.0148589 -0.812464E-07  0.127E-03    2.26      11.1  T
  11    -71.0148590 -0.255074E-07  0.643E-04    2.26      22.0  T
  12    -71.0148590 -0.542973E-08  0.227E-04    2.26      62.3  T

   *** convergence criteria satisfied after 12 iterations ***

         #    Occupation            Energy/Eh            Energy/eV
      -------------------------------------------------------------
         1        2.0000           -0.7191360             -19.5687
       ...           ...                  ...                  ...
        58        2.0000           -0.4220273             -11.4839
        59        2.0000           -0.4200029             -11.4289
        60        2.0000           -0.4033647             -10.9761
        61        2.0000           -0.3963306             -10.7847
        62        2.0000           -0.3775418             -10.2734
        63        2.0000           -0.3691102             -10.0440
        64        2.0000           -0.3598871              -9.7930 (HOMO)
        65                         -0.2769943              -7.5374 (LUMO)
        66                         -0.2272398              -6.1835
        67                         -0.2013315              -5.4785
        68                         -0.1525325              -4.1506
        69                         -0.0691621              -1.8820
       ...                                ...                  ...
       122                          0.6734905              18.3266
      -------------------------------------------------------------
                  HL-Gap            0.0828929 Eh            2.2556 eV
             Fermi-level           -0.3184407 Eh           -8.6652 eV

 SCC (total)                   0 d,  0 h,  0 min,  0.081 sec
 SCC setup                      ...        0 min,  0.000 sec (  0.535%)
 Dispersion                     ...        0 min,  0.001 sec (  0.748%)
 classical contributions        ...        0 min,  0.000 sec (  0.250%)
 integral evaluation            ...        0 min,  0.010 sec ( 11.967%)
 iterations                     ...        0 min,  0.038 sec ( 47.294%)
 molecular gradient             ...        0 min,  0.031 sec ( 38.634%)
 printout                       ...        0 min,  0.000 sec (  0.556%)

         :::::::::::::::::::::::::::::::::::::::::::::::::::::
         ::                     SUMMARY                     ::
         :::::::::::::::::::::::::::::::::::::::::::::::::::::
         :: total energy             -70.085370168434 Eh    ::
         :: gradient norm              0.102574782032 Eh/a0 ::
         :: HOMO-LUMO gap              2.255629440339 eV    ::
         ::.................................................::
         :: SCC energy               -71.013589256074 Eh    ::
         :: -> isotropic ES            0.057295689674 Eh    ::
         :: -> anisotropic ES          0.009786261706 Eh    ::
         :: -> anisotropic XC          0.036107680707 Eh    ::
         :: -> dispersion             -0.056172088885 Eh    ::
         :: repulsion energy           0.928219087639 Eh    ::
         :: add. restraining           0.000000000000 Eh    ::
         :: total charge               0.000000000000 e     ::
         :::::::::::::::::::::::::::::::::::::::::::::::::::::

      ----------------------------------------------------------- 
     |                   =====================                   |
     |                        A N C O P T                        |
     |                   =====================                   |
     |               Approximate Normal Coordinate               |
     |                Rational Function Optimizer                |
      ----------------------------------------------------------- 
      ----------------------------------------------------------- 
     |                   =====================                   |
     |                        A N C O P T                        |
     |                   =====================                   |
     |               Approximate Normal Coordinate               |
     |                Rational Function Optimizer                |
      ----------------------------------------------------------- 

          ...................................................
          :                      SETUP                      :
          :.................................................:
          :   optimization level            normal          :
          :   max. optcycles                   200          :
          :   ANC micro-cycles                  20          :
          :   degrees of freedom               144          :
          :.................................................:
          :   RF solver                   davidson          :
          :   write xtbopt.log                true          :
          :   linear?                        false          :
          :   energy convergence         0.5000000E-05 Eh   :
          :   grad. convergence          0.1000000E-02 Eh/α :
          :   maxmium RF displ.          1.0000000          :
          :   Hlow (freq-cutoff)         0.1000000E-01      :
          :   Hmax (freq-cutoff)         5.0000000          :
          :   S6 in model hess.         20.0000000          :
          ...................................................

generating ANC from exact Hessian ...
Using Lindh-Hessian (1995)
 Shifting diagonal of input Hessian by    9.8134878988468295E-003
 Lowest  eigenvalues of input Hessian
    0.000000    0.000000    0.000000    0.000000    0.000000    0.000000
    0.010000    0.010393    0.010475    0.010987    0.011551    0.012205
    0.013487    0.014267    0.014349    0.014909    0.016130    0.016401
 Highest eigenvalues
    1.786040    1.860081    1.921241    2.001729    2.053012    2.168272


........................................................................
.............................. CYCLE    1 ..............................
........................................................................

 iter      E             dE          RMSdq      gap      omega  full diag
   1    -71.0148590 -0.710149E+02  0.915E-05    2.26       0.0  T
   2    -71.0148590 -0.715943E-10  0.572E-05    2.26     247.4  T
   3    -71.0148590 -0.267022E-10  0.396E-05    2.26     357.3  T
     SCC iter.                  ...        0 min,  0.009 sec
     gradient                   ...        0 min,  0.031 sec
 * total energy  :   -70.0853702 Eh     change       -0.1034266E-08 Eh
   gradient norm :     0.1025762 Eh/α   predicted     0.0000000E+00 (-100.00%)
   displ. norm   :     0.3200357 α      lambda       -0.1478778E-01
   maximum displ.:     0.1053640 α      in ANC's #47, #12, #56, ...

........................................................................
.............................. CYCLE    2 ..............................
........................................................................

 iter      E             dE          RMSdq      gap      omega  full diag
   1    -71.0494279 -0.710494E+02  0.182E-01    2.37       0.0  T
   2    -71.0495093 -0.813583E-04  0.111E-01    2.39       1.0  T
   3    -71.0494692  0.400502E-04  0.383E-02    2.38       1.0  T
   4    -71.0495240 -0.547611E-04  0.881E-03    2.39       1.6  T
   5    -71.0495281 -0.405508E-05  0.363E-03    2.39       3.9  T
   6    -71.0495283 -0.270537E-06  0.161E-03    2.39       8.8  T
   7    -71.0495283 -0.181127E-07  0.764E-04    2.39      18.5  T
   8    -71.0495284 -0.124177E-07  0.252E-04    2.39      56.1  T
     SCC iter.                  ...        0 min,  0.020 sec
     gradient                   ...        0 min,  0.031 sec
 * total energy  :   -70.0953587 Eh     change       -0.9988508E-02 Eh
   gradient norm :     0.0423707 Eh/α   predicted    -0.8157958E-02 ( -18.33%)
   displ. norm   :     0.2491204 α      lambda       -0.3914497E-02
   maximum displ.:     0.1202401 α      in ANC's #12, #47, #13, ...

........................................................................
.............................. CYCLE    3 ..............................
........................................................................

 iter      E             dE          RMSdq      gap      omega  full diag
   1    -71.0694617 -0.710695E+02  0.105E-01    2.46       0.0  T
   2    -71.0695044 -0.427663E-04  0.651E-02    2.47       1.0  T
   3    -71.0694950  0.941491E-05  0.248E-02    2.47       1.0  T
   4    -71.0695106 -0.155347E-04  0.529E-03    2.47       2.7  T
   5    -71.0695119 -0.137662E-05  0.198E-03    2.47       7.1  T
   6    -71.0695120 -0.899624E-07  0.882E-04    2.47      16.0  T
   7    -71.0695120 -0.684577E-08  0.357E-04    2.47      39.6  T
     SCC iter.                  ...        0 min,  0.046 sec
     gradient                   ...        0 min,  0.031 sec
 * total energy  :   -70.0974799 Eh     change       -0.2121197E-02 Eh
   gradient norm :     0.0086007 Eh/α   predicted    -0.2079886E-02 (  -1.95%)
   displ. norm   :     0.1200986 α      lambda       -0.3463450E-03
   maximum displ.:     0.0759494 α      in ANC's #12, #13, #3, ...

........................................................................
.............................. CYCLE    4 ..............................
........................................................................

 iter      E             dE          RMSdq      gap      omega  full diag
   1    -71.0699647 -0.710700E+02  0.375E-02    2.48       0.0  T
   2    -71.0699666 -0.190285E-05  0.228E-02    2.47       1.0  T
   3    -71.0699644  0.218306E-05  0.681E-03    2.48       2.1  T
   4    -71.0699669 -0.250063E-05  0.191E-03    2.47       7.4  T
   5    -71.0699671 -0.158262E-06  0.602E-04    2.48      23.5  T
   6    -71.0699671 -0.379927E-08  0.307E-04    2.48      46.0  T
     SCC iter.                  ...        0 min,  0.015 sec
     gradient                   ...        0 min,  0.052 sec
 * total energy  :   -70.0977168 Eh     change       -0.2369101E-03 Eh
   gradient norm :     0.0043284 Eh/α   predicted    -0.1756909E-03 ( -25.84%)
   displ. norm   :     0.1188741 α      lambda       -0.1587103E-03
   maximum displ.:     0.0695438 α      in ANC's #12, #3, #13, ...

........................................................................
.............................. CYCLE    5 ..............................
........................................................................

 iter      E             dE          RMSdq      gap      omega  full diag
   1    -71.0697130 -0.710697E+02  0.328E-02    2.47       0.0  T
   2    -71.0697140 -0.103323E-05  0.198E-02    2.47       1.0  T
   3    -71.0697119  0.210341E-05  0.667E-03    2.47       2.1  T
   4    -71.0697143 -0.244646E-05  0.140E-03    2.47      10.1  T
   5    -71.0697144 -0.747439E-07  0.542E-04    2.47      26.1  T
   6    -71.0697144 -0.193539E-08  0.277E-04    2.47      51.0  T
     SCC iter.                  ...        0 min,  0.015 sec
     gradient                   ...        0 min,  0.031 sec
 * total energy  :   -70.0978098 Eh     change       -0.9300685E-04 Eh
   gradient norm :     0.0018696 Eh/α   predicted    -0.8048191E-04 ( -13.47%)
   displ. norm   :     0.0885312 α      lambda       -0.2923291E-04
   maximum displ.:     0.0508756 α      in ANC's #3, #5, #4, ...

........................................................................
.............................. CYCLE    6 ..............................
........................................................................

 iter      E             dE          RMSdq      gap      omega  full diag
   1    -71.0698715 -0.710699E+02  0.237E-02    2.47       0.0  T
   2    -71.0698718 -0.284507E-06  0.138E-02    2.47       1.0  T
   3    -71.0698714  0.400850E-06  0.335E-03    2.47       4.2  T
   4    -71.0698719 -0.521348E-06  0.790E-04    2.47      17.9  T
   5    -71.0698719 -0.494667E-08  0.393E-04    2.47      36.0  T
     SCC iter.                  ...        0 min,  0.013 sec
     gradient                   ...        0 min,  0.031 sec
 * total energy  :   -70.0978389 Eh     change       -0.2909166E-04 Eh
   gradient norm :     0.0016576 Eh/α   predicted    -0.1468081E-04 ( -49.54%)
   displ. norm   :     0.0948988 α      lambda       -0.2364619E-04
   maximum displ.:     0.0576983 α      in ANC's #3, #5, #4, ...

........................................................................
.............................. CYCLE    7 ..............................
........................................................................

 iter      E             dE          RMSdq      gap      omega  full diag
   1    -71.0700427 -0.710700E+02  0.264E-02    2.47       0.0  T
   2    -71.0700431 -0.371713E-06  0.153E-02    2.47       1.0  T
   3    -71.0700430  0.719337E-07  0.209E-03    2.47       6.8  T
   4    -71.0700432 -0.174106E-06  0.799E-04    2.47      17.7  T
   5    -71.0700432 -0.712342E-08  0.353E-04    2.47      40.1  T
     SCC iter.                  ...        0 min,  0.013 sec
     gradient                   ...        0 min,  0.046 sec
 * total energy  :   -70.0978651 Eh     change       -0.2624077E-04 Eh
   gradient norm :     0.0011846 Eh/α   predicted    -0.1187262E-04 ( -54.76%)
   displ. norm   :     0.1095509 α      lambda       -0.1909114E-04
   maximum displ.:     0.0682941 α      in ANC's #3, #4, #5, ...

........................................................................
.............................. CYCLE    8 ..............................
........................................................................

 iter      E             dE          RMSdq      gap      omega  full diag
   1    -71.0701122 -0.710701E+02  0.285E-02    2.47       0.0  T
   2    -71.0701125 -0.310400E-06  0.165E-02    2.47       1.0  T
   3    -71.0701125 -0.443723E-08  0.180E-03    2.47       7.9  T
   4    -71.0701126 -0.878854E-07  0.885E-04    2.47      16.0  T
   5    -71.0701126 -0.104103E-07  0.328E-04    2.47      43.1  T
     SCC iter.                  ...        0 min,  0.012 sec
     gradient                   ...        0 min,  0.031 sec
 * total energy  :   -70.0978863 Eh     change       -0.2121743E-04 Eh
   gradient norm :     0.0011682 Eh/α   predicted    -0.9598024E-05 ( -54.76%)
   displ. norm   :     0.1121984 α      lambda       -0.1499400E-04
   maximum displ.:     0.0722892 α      in ANC's #3, #4, #5, ...

........................................................................
.............................. CYCLE    9 ..............................
........................................................................

 iter      E             dE          RMSdq      gap      omega  full diag
   1    -71.0701007 -0.710701E+02  0.268E-02    2.47       0.0  T
   2    -71.0701010 -0.266306E-06  0.156E-02    2.47       1.0  T
   3    -71.0701010  0.567379E-07  0.181E-03    2.47       7.8  T
   4    -71.0701011 -0.127095E-06  0.873E-04    2.47      16.2  T
   5    -71.0701011 -0.171308E-07  0.328E-04    2.47      43.1  T
     SCC iter.                  ...        0 min,  0.019 sec
     gradient                   ...        0 min,  0.031 sec
 * total energy  :   -70.0979023 Eh     change       -0.1596486E-04 Eh
   gradient norm :     0.0009559 Eh/α   predicted    -0.7539789E-05 ( -52.77%)
   displ. norm   :     0.0878158 α      lambda       -0.9516341E-05
   maximum displ.:     0.0596136 α      in ANC's #3, #4, #5, ...

........................................................................
.............................. CYCLE   10 ..............................
........................................................................

 iter      E             dE          RMSdq      gap      omega  full diag
   1    -71.0702953 -0.710703E+02  0.188E-02    2.47       0.0  T
   2    -71.0702954 -0.109565E-06  0.110E-02    2.47       1.3  T
   3    -71.0702954  0.199383E-07  0.112E-03    2.47      12.6  T
   4    -71.0702954 -0.498582E-07  0.533E-04    2.47      26.5  T
   5    -71.0702954 -0.537509E-08  0.255E-04    2.47      55.4  T
     SCC iter.                  ...        0 min,  0.013 sec
     gradient                   ...        0 min,  0.041 sec
 * total energy  :   -70.0979129 Eh     change       -0.1058351E-04 Eh
   gradient norm :     0.0006140 Eh/α   predicted    -0.4775649E-05 ( -54.88%)
   displ. norm   :     0.0710626 α      lambda       -0.6611431E-05
   maximum displ.:     0.0506922 α      in ANC's #3, #4, #7, ...

........................................................................
.............................. CYCLE   11 ..............................
........................................................................

 iter      E             dE          RMSdq      gap      omega  full diag
   1    -71.0702873 -0.710703E+02  0.144E-02    2.47       0.0  T
   2    -71.0702874 -0.627943E-07  0.846E-03    2.47       1.7  T
   3    -71.0702874  0.378697E-07  0.105E-03    2.47      13.5  T
   4    -71.0702874 -0.580237E-07  0.387E-04    2.47      36.5  T
   5    -71.0702874 -0.196387E-08  0.207E-04    2.47      68.3  T
     SCC iter.                  ...        0 min,  0.012 sec
     gradient                   ...        0 min,  0.031 sec
 * total energy  :   -70.0979207 Eh     change       -0.7811377E-05 Eh
   gradient norm :     0.0004991 Eh/α   predicted    -0.3317372E-05 ( -57.53%)
   displ. norm   :     0.0700794 α      lambda       -0.5984648E-05
   maximum displ.:     0.0500740 α      in ANC's #3, #4, #7, ...

........................................................................
.............................. CYCLE   12 ..............................
........................................................................

 iter      E             dE          RMSdq      gap      omega  full diag
   1    -71.0702599 -0.710703E+02  0.148E-02    2.47       0.0  T
   2    -71.0702599 -0.446032E-07  0.876E-03    2.47       1.6  T
   3    -71.0702599  0.185576E-07  0.853E-04    2.47      16.6  T
   4    -71.0702600 -0.356907E-07  0.333E-04    2.47      42.5  T
     SCC iter.                  ...        0 min,  0.010 sec
     gradient                   ...        0 min,  0.034 sec
 * total energy  :   -70.0979276 Eh     change       -0.6883096E-05 Eh
   gradient norm :     0.0005157 Eh/α   predicted    -0.3002488E-05 ( -56.38%)
   displ. norm   :     0.0657267 α      lambda       -0.4735838E-05
   maximum displ.:     0.0464402 α      in ANC's #3, #4, #9, ...

........................................................................
.............................. CYCLE   13 ..............................
........................................................................

 iter      E             dE          RMSdq      gap      omega  full diag
   1    -71.0702268 -0.710702E+02  0.147E-02    2.47       0.0  T
   2    -71.0702268 -0.453617E-07  0.875E-03    2.47       1.6  T
   3    -71.0702268  0.460992E-07  0.114E-03    2.47      12.4  T
   4    -71.0702269 -0.668192E-07  0.366E-04    2.47      38.7  T
   5    -71.0702269 -0.591996E-09  0.187E-04    2.47      75.7  T
     SCC iter.                  ...        0 min,  0.013 sec
     gradient                   ...        0 min,  0.031 sec
 * total energy  :   -70.0979330 Eh     change       -0.5398236E-05 Eh
   gradient norm :     0.0004188 Eh/α   predicted    -0.2373077E-05 ( -56.04%)
   displ. norm   :     0.0530138 α      lambda       -0.3267539E-05
   maximum displ.:     0.0380435 α      in ANC's #3, #4, #5, ...

........................................................................
.............................. CYCLE   14 ..............................
........................................................................

 iter      E             dE          RMSdq      gap      omega  full diag
   1    -71.0701937 -0.710702E+02  0.127E-02    2.47       0.0  T
   2    -71.0701938 -0.290486E-07  0.758E-03    2.47       1.9  T
   3    -71.0701938  0.389359E-08  0.667E-04    2.47      21.2  T
   4    -71.0701938 -0.148410E-07  0.307E-04    2.47      46.0  T
     SCC iter.                  ...        0 min,  0.010 sec
     gradient                   ...        0 min,  0.041 sec
 * total energy  :   -70.0979370 Eh     change       -0.3971011E-05 Eh
   gradient norm :     0.0003247 Eh/α   predicted    -0.1637439E-05 ( -58.77%)
   displ. norm   :     0.0447256 α      lambda       -0.2769425E-05
   maximum displ.:     0.0323170 α      in ANC's #3, #5, #1, ...

   *** GEOMETRY OPTIMIZATION CONVERGED AFTER 14 ITERATIONS ***

------------------------------------------------------------------------
 total energy gain   :        -0.0125668 Eh       -7.8858 kcal/mol
 total RMSD          :         0.1509578 a0        0.0799 Å
 total power (kW/mol):        -2.3567206 (step)  -33.7744 (real)
------------------------------------------------------------------------

 ANCopt (total)                0 d,  0 h,  0 min,  0.977 sec
 optimizer setup                ...        0 min,  0.000 sec (  0.017%)
 model hessian                  ...        0 min,  0.063 sec (  6.499%)
 ANC generation                 ...        0 min,  0.002 sec (  0.237%)
 coordinate transformation      ...        0 min,  0.000 sec (  0.018%)
 single point calculation       ...        0 min,  0.906 sec ( 92.732%)
 optimization log               ...        0 min,  0.003 sec (  0.313%)
 hessian update                 ...        0 min,  0.000 sec (  0.026%)
 rational function              ...        0 min,  0.001 sec (  0.101%)

================
 final structure:
================
50
 xtb: 6.7.1 (edcfbbe)
O           -0.13324541633422       -1.77022909896766       -2.60573844599058
C            0.16087775762865       -1.08394203585833       -1.41052497283804
C           -0.96439122581099       -1.34349377271157       -0.38331112765325
N           -2.26933064702704       -1.20049575084591       -1.03280634863516
C           -3.25681961362320       -1.87886503989977       -0.20138097938809
C           -3.15149515476445       -1.40215916433726        1.26497622818309
C           -2.63838076091434        0.20570510733932       -1.16594051635092
C           -3.00422475568266        0.80897115712790        0.20439443876468
C           -2.74915868385005        2.31744944045088        0.32082325593412
C           -1.30334768322900        2.79722807518679        0.28085136309255
C           -2.34081760746665       -0.09712321752296        1.25752670282767
C           -0.89928902427465       -0.45954906648691        0.87129937396423
C            1.46832079704599       -1.59611745953634       -0.85386790515598
C            1.67334231142827       -2.95661519136428       -0.85936289601088
C            2.84755186650225       -3.48841495589328       -0.31412934316629
N            3.78660577831582       -2.75841187100407        0.22023868460200
C            3.63087420509607       -1.42315645703227        0.22511113330644
C            2.48300720633776       -0.76649466314918       -0.30826090173816
C            2.43930631970152        0.64476503769680       -0.27329746398730
C            3.47457772383618        1.37014014764434        0.26339756578799
O            3.53803203465919        2.72818343048455        0.32676842129646
C            2.48681084088411        3.48471793746613       -0.22023216954377
C            4.59883457385388        0.70697847493211        0.80803297388007
C            4.67230250736864       -0.65003836166073        0.78686011386263
H           -1.09969984534484       -1.78568256461900       -2.68159005317274
H            0.22861582940725       -0.00832168622387       -1.62932380884608
H           -0.88205790258529       -2.39984567181924       -0.10318053426344
H           -4.24367993267289       -1.66498329666926       -0.61680103899650
H           -3.08765022836506       -2.95581530876688       -0.27813885679607
H           -4.14309580908293       -1.23657051210099        1.68782977293718
H           -2.64444648764821       -2.14711077257917        1.88027582839750
H           -3.48537299619254        0.26705672494026       -1.85568945884842
H           -1.80461306439970        0.73906011710281       -1.62200423548680
H           -4.08730934299179        0.69979493520211        0.34312971741736
H           -3.29638709675380        2.79863682342914       -0.49489005405224
H           -3.19607367202548        2.66054635622612        1.25765627835799
H           -1.28595571049056        3.88560238707372        0.25961129001327
H           -0.76001727143868        2.47112657187910        1.16451569916210
H           -0.79219426102211        2.44062235831507       -0.61052199740356
H           -2.36245674618813        0.37729973057415        2.24207720416598
H           -0.41799849001783       -0.99715012321462        1.69003616644957
H           -0.31174531813378        0.43361615708160        0.67830163900680
H            0.93365420838980       -3.60880276758482       -1.29629937838546
H            3.01600238136595       -4.55791022282159       -0.31042177941774
H            1.58783923027078        1.15283500341490       -0.69529504602979
H            2.77292146118777        4.52677861098532       -0.08658328765102
H            1.54368858750470        3.30047325579746        0.30366903498232
H            2.35723476414033        3.28060496223279       -1.28814555458048
H            5.38631245228775        1.31571477650064        1.22357969950990
H            5.52444191111532       -1.17670854641429        1.18597556848828

 Bond Distances (Angstroems)
 ---------------------------
O1-C2=1.4093         O1-H25=0.9695        C2-O1=1.4093         C2-C3=1.5456         C2-C13=1.5105        C2-H26=1.0997        
C3-C2=1.5456         C3-N4=1.4646         C3-C12=1.5361        C3-H27=1.0960        N4-C3=1.4646         N4-C5=1.4583         
N4-C7=1.4599         C5-N4=1.4583         C5-C6=1.5455         C5-H28=1.0919        C5-H29=1.0929        C6-C5=1.5455         
C6-C11=1.5364        C6-H30=1.0906        C6-H31=1.0912        C7-N4=1.4599         C7-C8=1.5413         C7-H32=1.0940        
C7-H33=1.0898        C8-C7=1.5413         C8-C9=1.5343         C8-C11=1.5395        C8-H34=1.0974        C9-C8=1.5343         
C9-C10=1.5239        C9-H35=1.0938        C9-H36=1.0932        C10-C9=1.5239        C10-H37=1.0887       C10-H38=1.0874       
C10-H39=1.0877       C11-C6=1.5364        C11-C8=1.5395        C11-C12=1.5358       C11-H40=1.0931       C12-C3=1.5361        
C12-C11=1.5358       C12-H41=1.0913       C12-H42=1.0864       C13-C2=1.5105        C13-C14=1.3759       C13-C18=1.4197       
C14-C13=1.3759       C14-C15=1.3996       C14-H43=1.0786       C15-C14=1.3996       C15-N16=1.3039       C15-H44=1.0827       
N16-C15=1.3039       N16-C17=1.3443       C17-N16=1.3443       C17-C18=1.4259       C17-C24=1.4135       C18-C13=1.4197       
C18-C17=1.4259       C18-C19=1.4124       C19-C18=1.4124       C19-C20=1.3733       C19-H45=1.0776       C20-C19=1.3733       
C20-O21=1.3610       C20-C23=1.4143       O21-C20=1.3610       O21-C22=1.4059       C22-O21=1.4059       C22-H46=1.0889       
C22-H47=1.0945       C22-H48=1.0949       C23-C20=1.4143       C23-C24=1.3592       C23-H49=1.0786       C24-C17=1.4135       
C24-C23=1.3592       C24-H50=1.0783       H25-O1=0.9695        H26-C2=1.0997        H27-C3=1.0960        H28-C5=1.0919        
H29-C5=1.0929        H30-C6=1.0906        H31-C6=1.0912        H32-C7=1.0940        H33-C7=1.0898        H34-C8=1.0974        
H35-C9=1.0938        H36-C9=1.0932        H37-C10=1.0887       H38-C10=1.0874       H39-C10=1.0877       H40-C11=1.0931       
H41-C12=1.0913       H42-C12=1.0864       H43-C14=1.0786       H44-C15=1.0827       H45-C19=1.0776       H46-C22=1.0889       
H47-C22=1.0945       H48-C22=1.0949       H49-C23=1.0786       H50-C24=1.0783       
 C  H  Rav=1.0896 sigma=0.0061  Rmin=1.0776  Rmax=1.0997    25
 C  C  Rav=1.4707 sigma=0.0698  Rmin=1.3592  Rmax=1.5456    19
 N  C  Rav=1.4062 sigma=0.0683  Rmin=1.3039  Rmax=1.4646     5
 O  H  Rav=0.9695 sigma=0.0000  Rmin=0.9695  Rmax=0.9695     1
 O  C  Rav=1.3921 sigma=0.0220  Rmin=1.3610  Rmax=1.4093     3

 selected bond angles (degree)
 --------------------
H25-O1-C2=106.39               C3-C2-O1=109.27                C13-C2-O1=109.15               C13-C2-C3=109.17               
H26-C2-O1=108.69               H26-C2-C3=109.96               H26-C2-C13=110.59              N4-C3-C2=109.73                
C12-C3-C2=114.54               C12-C3-N4=110.11               H27-C3-C2=106.08               H27-C3-N4=105.93               
H27-C3-C12=110.04              C5-N4-C3=107.76                C7-N4-C3=111.08                C7-N4-C5=109.20                
C6-C5-N4=110.57                H28-C5-N4=107.70               H28-C5-C6=111.23               H29-C5-N4=108.27               
H29-C5-C6=111.10               H29-C5-H28=107.83              C11-C6-C5=107.06               H30-C6-C5=110.65               
H30-C6-C11=110.65              H31-C6-C5=110.86               H31-C6-C11=109.72              H31-C6-H30=107.91              
C8-C7-N4=110.85                H32-C7-N4=107.89               H32-C7-C8=110.78               H33-C7-N4=108.43               
H33-C7-C8=111.23               H33-C7-H32=107.52              C9-C8-C7=114.38                C11-C8-C7=105.99               
C11-C8-C9=117.07               H34-C8-C7=107.92               H34-C8-C9=104.61               H34-C8-C11=106.28              
C10-C9-C8=117.73               H35-C9-C8=107.02               H35-C9-C10=108.46              H36-C9-C8=107.80               
H36-C9-C10=108.15              H36-C9-H35=107.25              H37-C10-C9=109.29              H38-C10-C9=111.00              
H38-C10-H37=107.92             H39-C10-C9=111.36              H39-C10-H37=107.71             H39-C10-H38=109.44             

 selected dihedral angles (degree)
 ---------------------------------
C3-C2-O1-H25= 31.82           C13-C2-O1-H25=151.13          H26-C2-O1-H25=271.83          N4-C3-C2-O1=314.78            
N4-C3-C2-C13=195.47           N4-C3-C2-H26= 73.99           C12-C3-C2-O1=190.36           C12-C3-C2-C13= 71.06          
C12-C3-C2-H26=309.57          H27-C3-C2-O1= 68.78           H27-C3-C2-C13=309.48          H27-C3-C2-H26=187.99          
C5-N4-C3-C2=160.90            C5-N4-C3-C12=287.85           C5-N4-C3-H27= 46.80           C7-N4-C3-C2=280.48            
C7-N4-C3-C12= 47.43           C7-N4-C3-H27=166.38           C6-C5-N4-C3= 51.21            C6-C5-N4-C7=290.45            
H28-C5-N4-C3=172.93           H28-C5-N4-C7= 52.17           H29-C5-N4-C3=289.28           H29-C5-N4-C7=168.52           
C11-C6-C5-N4= 16.48           C11-C6-C5-H28=256.87          C11-C6-C5-H29=136.73          H30-C6-C5-N4=137.14           
H30-C6-C5-H28= 17.53          H30-C6-C5-H29=257.39          H31-C6-C5-N4=256.83           H31-C6-C5-H28=137.22          
H31-C6-C5-H29= 17.08          C8-C7-N4-C3=288.22            C8-C7-N4-C5= 46.93            H32-C7-N4-C3=166.76           
H32-C7-N4-C5=285.47           H33-C7-N4-C3= 50.59           H33-C7-N4-C5=169.30           C9-C8-C7-N4=151.94            
C9-C8-C7-H32=271.69           C9-C8-C7-H33= 31.21           C11-C8-C7-N4= 21.42           C11-C8-C7-H32=141.17          
C11-C8-C7-H33=260.70          H34-C8-C7-N4=267.90           H34-C8-C7-H32= 27.65          H34-C8-C7-H33=147.17          
C10-C9-C8-C7=293.18           C10-C9-C8-C11= 58.03          C10-C9-C8-H34=175.32          H35-C9-C8-C7= 55.53           
H35-C9-C8-C11=180.37          H35-C9-C8-H34=297.66          H36-C9-C8-C7=170.61           H36-C9-C8-C11=295.46          
H36-C9-C8-H34= 52.75          H37-C10-C9-C8=173.63          H37-C10-C9-H35= 52.02         H37-C10-C9-H36=296.02         
H38-C10-C9-C8=292.54          H38-C10-C9-H35=170.94         H38-C10-C9-H36= 54.94         H39-C10-C9-C8= 54.75          
H39-C10-C9-H35=293.14         H39-C10-C9-H36=177.14         
           -------------------------------------------------
          |                Final Singlepoint                |
           -------------------------------------------------

          ...................................................
          :                      SETUP                      :
          :.................................................:
          :  # basis functions                 122          :
          :  # atomic orbitals                 122          :
          :  # shells                           74          :
          :  # electrons                       128          :
          :  max. iterations                   250          :
          :  Hamiltonian                  GFN2-xTB          :
          :  restarted?                      false          :
          :  GBSA solvation                  false          :
          :  PC potential                    false          :
          :  electronic temp.          300.0000000     K    :
          :  accuracy                    1.0000000          :
          :  -> integral cutoff          0.2500000E+02      :
          :  -> integral neglect         0.1000000E-07      :
          :  -> SCF convergence          0.1000000E-05 Eh   :
          :  -> wf. convergence          0.1000000E-03 e    :
          :  Broyden damping             0.4000000          :
          :  net charge                          0          :
          :  unpaired electrons                  0          :
          ...................................................

 iter      E             dE          RMSdq      gap      omega  full diag
   1    -71.0701938 -0.710702E+02  0.131E-04    2.47       0.0  T
   2    -71.0701938 -0.164349E-09  0.927E-05    2.47     152.6  T
   3    -71.0701938 -0.273943E-09  0.479E-05    2.47     295.3  T

   *** convergence criteria satisfied after 3 iterations ***

         #    Occupation            Energy/Eh            Energy/eV
      -------------------------------------------------------------
         1        2.0000           -0.7208839             -19.6162
       ...           ...                  ...                  ...
        58        2.0000           -0.4214053             -11.4670
        59        2.0000           -0.4195027             -11.4153
        60        2.0000           -0.4045697             -11.0089
        61        2.0000           -0.3951074             -10.7514
        62        2.0000           -0.3780443             -10.2871
        63        2.0000           -0.3639900              -9.9047
        64        2.0000           -0.3583082              -9.7501 (HOMO)
        65                         -0.2674072              -7.2765 (LUMO)
        66                         -0.2289995              -6.2314
        67                         -0.1972635              -5.3678
        68                         -0.1477423              -4.0203
        69                         -0.0657266              -1.7885
       ...                                ...                  ...
       122                          0.7032483              19.1364
      -------------------------------------------------------------
                  HL-Gap            0.0909009 Eh            2.4735 eV
             Fermi-level           -0.3128577 Eh           -8.5133 eV

 SCC (total)                   0 d,  0 h,  0 min,  0.049 sec
 SCC setup                      ...        0 min,  0.000 sec (  0.748%)
 Dispersion                     ...        0 min,  0.000 sec (  0.828%)
 classical contributions        ...        0 min,  0.000 sec (  0.397%)
 integral evaluation            ...        0 min,  0.009 sec ( 19.059%)
 iterations                     ...        0 min,  0.008 sec ( 15.280%)
 molecular gradient             ...        0 min,  0.031 sec ( 63.310%)
 printout                       ...        0 min,  0.000 sec (  0.364%)

         :::::::::::::::::::::::::::::::::::::::::::::::::::::
         ::                     SUMMARY                     ::
         :::::::::::::::::::::::::::::::::::::::::::::::::::::
         :: total energy             -70.097936954080 Eh    ::
         :: gradient norm              0.000325439996 Eh/a0 ::
         :: HOMO-LUMO gap              2.473540690843 eV    ::
         ::.................................................::
         :: SCC energy               -71.068863326716 Eh    ::
         :: -> isotropic ES            0.055623824179 Eh    ::
         :: -> anisotropic ES          0.008821027855 Eh    ::
         :: -> anisotropic XC          0.034689237830 Eh    ::
         :: -> dispersion             -0.057121821964 Eh    ::
         :: repulsion energy           0.970926372636 Eh    ::
         :: add. restraining           0.000000000000 Eh    ::
         :: total charge               0.000000000000 e     ::
         :::::::::::::::::::::::::::::::::::::::::::::::::::::

           -------------------------------------------------
          |                Property Printout                |
           -------------------------------------------------

    * Orbital Energies and Occupations

         #    Occupation            Energy/Eh            Energy/eV
      -------------------------------------------------------------
         1        2.0000           -0.7208839             -19.6162
       ...           ...                  ...                  ...
        52        2.0000           -0.4474755             -12.1764
        53        2.0000           -0.4425276             -12.0418
        54        2.0000           -0.4393978             -11.9566
        55        2.0000           -0.4386754             -11.9370
        56        2.0000           -0.4326213             -11.7722
        57        2.0000           -0.4241770             -11.5424
        58        2.0000           -0.4214053             -11.4670
        59        2.0000           -0.4195027             -11.4153
        60        2.0000           -0.4045697             -11.0089
        61        2.0000           -0.3951074             -10.7514
        62        2.0000           -0.3780443             -10.2871
        63        2.0000           -0.3639900              -9.9047
        64        2.0000           -0.3583082              -9.7501 (HOMO)
        65                         -0.2674072              -7.2765 (LUMO)
        66                         -0.2289995              -6.2314
        67                         -0.1972635              -5.3678
        68                         -0.1477423              -4.0203
        69                         -0.0657266              -1.7885
        70                          0.0091494               0.2490
        71                          0.0190391               0.5181
        72                          0.0284656               0.7746
        73                          0.0348067               0.9471
        74                          0.0514159               1.3991
        75                          0.0534493               1.4544
       ...                                ...                  ...
       122                          0.7032483              19.1364
      -------------------------------------------------------------
                  HL-Gap            0.0909009 Eh            2.4735 eV
             Fermi-level           -0.3128577 Eh           -8.5133 eV

     #   Z          covCN         q      C6AA      α(0)
     1   8 O        1.656    -0.450    21.836     6.308
     2   6 C        3.733     0.112    18.837     6.195
     3   6 C        3.829     0.034    19.983     6.360
     4   7 N        2.729    -0.201    25.358     7.479
     5   6 C        3.783     0.010    20.432     6.439
     6   6 C        3.811    -0.065    21.740     6.637
     7   6 C        3.773     0.008    20.479     6.448
     8   6 C        3.857    -0.029    21.051     6.525
     9   6 C        3.799    -0.056    21.591     6.616
    10   6 C        3.750    -0.096    22.391     6.749
    11   6 C        3.865    -0.009    20.695     6.469
    12   6 C        3.808    -0.066    21.761     6.640
    13   6 C        2.973     0.011    27.760     8.642
    14   6 C        2.918    -0.043    29.068     8.841
    15   6 C        2.904     0.059    26.666     8.467
    16   7 N        1.844    -0.232    26.939     7.692
    17   6 C        2.978     0.082    26.159     8.390
    18   6 C        2.981    -0.005    28.152     8.703
    19   6 C        2.913    -0.079    29.965     8.976
    20   6 C        2.861     0.143    24.879     8.176
    21   8 O        1.706    -0.266    18.405     5.792
    22   6 C        3.643     0.037    20.294     6.476
    23   6 C        2.916    -0.049    29.204     8.862
    24   6 C        2.922    -0.038    28.938     8.822
    25   1 H        0.804     0.304     0.708     1.322
    26   1 H        0.923     0.013     2.838     2.634
    27   1 H        0.924     0.035     2.511     2.478
    28   1 H        0.924     0.033     2.542     2.493
    29   1 H        0.924     0.032     2.562     2.503
    30   1 H        0.924     0.028     2.622     2.532
    31   1 H        0.924     0.030     2.592     2.518
    32   1 H        0.924     0.028     2.618     2.531
    33   1 H        0.925     0.037     2.495     2.470
    34   1 H        0.924     0.028     2.619     2.531
    35   1 H        0.924     0.031     2.566     2.505
    36   1 H        0.924     0.032     2.558     2.501
    37   1 H        0.925     0.033     2.546     2.495
    38   1 H        0.925     0.034     2.529     2.487
    39   1 H        0.925     0.028     2.612     2.527
    40   1 H        0.924     0.023     2.689     2.565
    41   1 H        0.924     0.025     2.659     2.550
    42   1 H        0.925     0.038     2.481     2.463
    43   1 H        0.926     0.048     2.340     2.392
    44   1 H        0.925     0.037     2.493     2.469
    45   1 H        0.926     0.030     2.585     2.514
    46   1 H        0.925     0.062     2.170     2.304
    47   1 H        0.924     0.041     2.434     2.440
    48   1 H        0.924     0.040     2.446     2.446
    49   1 H        0.926     0.055     2.257     2.349
    50   1 H        0.926     0.062     2.177     2.307

 Mol. C6AA /au·bohr⁶  :      24672.064179
 Mol. C8AA /au·bohr⁸  :     567128.244960
 Mol. α(0) /au        :        240.031095


Wiberg/Mayer (AO) data.
largest (>0.10) Wiberg bond orders for each atom

 ---------------------------------------------------------------------------
     #   Z sym  total        # sym  WBO       # sym  WBO       # sym  WBO
 ---------------------------------------------------------------------------
     1   8 O    1.953 --     2 C    0.994    25 H    0.873
     2   6 C    3.962 --     1 O    0.994    13 C    0.990     3 C    0.954
                            26 H    0.946
     3   6 C    3.982 --     4 N    0.987    12 C    0.985    27 H    0.963
                             2 C    0.954
     4   7 N    3.130 --     7 C    1.000     5 C    1.000     3 C    0.987
     5   6 C    3.986 --     4 N    1.000     6 C    0.990    28 H    0.976
                            29 H    0.975
     6   6 C    3.997 --    11 C    0.997     5 C    0.990    31 H    0.980
                            30 H    0.979
     7   6 C    3.986 --     4 N    1.000     8 C    0.982    32 H    0.975
                            33 H    0.967
     8   6 C    3.994 --     9 C    0.996    11 C    0.985     7 C    0.982
                            34 H    0.968
     9   6 C    3.996 --    10 C    1.019     8 C    0.996    36 H    0.977
                            35 H    0.977
    10   6 C    3.998 --     9 C    1.019    37 H    0.986    38 H    0.983
                            39 H    0.982
    11   6 C    3.996 --     6 C    0.997    12 C    0.997     8 C    0.985
                            40 H    0.969
    12   6 C    3.997 --    11 C    0.997     3 C    0.985    41 H    0.979
                            42 H    0.968
    13   6 C    3.986 --    14 C    1.511    18 C    1.265     2 C    0.990
                            16 N    0.103
    14   6 C    3.990 --    13 C    1.511    15 C    1.324    43 H    0.966
    15   6 C    3.973 --    16 N    1.533    14 C    1.324    44 H    0.963
    16   7 N    3.062 --    15 C    1.533    17 C    1.300    13 C    0.103
    17   6 C    3.983 --    16 N    1.300    24 C    1.250    18 C    1.236
    18   6 C    3.989 --    19 C    1.280    13 C    1.265    17 C    1.236
    19   6 C    3.984 --    20 C    1.475    18 C    1.280    45 H    0.955
                            24 C    0.104
    20   6 C    3.934 --    19 C    1.475    23 C    1.243    21 O    1.065
    21   8 O    2.230 --    20 C    1.065    22 C    0.985
    22   6 C    3.946 --    21 O    0.985    46 H    0.980    48 H    0.976
                            47 H    0.974
    23   6 C    3.988 --    24 C    1.593    20 C    1.243    49 H    0.967
    24   6 C    3.989 --    23 C    1.593    17 C    1.250    50 H    0.966
                            19 C    0.104
    25   1 H    0.907 --     1 O    0.873
    26   1 H    1.000 --     2 C    0.946
    27   1 H    0.999 --     3 C    0.963
    28   1 H    0.998 --     5 C    0.976
    29   1 H    0.999 --     5 C    0.975
    30   1 H    0.999 --     6 C    0.979
    31   1 H    0.999 --     6 C    0.980
    32   1 H    0.999 --     7 C    0.975
    33   1 H    0.999 --     7 C    0.967
    34   1 H    0.999 --     8 C    0.968
    35   1 H    0.999 --     9 C    0.977
    36   1 H    0.999 --     9 C    0.977
    37   1 H    0.999 --    10 C    0.986
    38   1 H    0.999 --    10 C    0.983
    39   1 H    0.999 --    10 C    0.982
    40   1 H    0.999 --    11 C    0.969
    41   1 H    0.999 --    12 C    0.979
    42   1 H    0.999 --    12 C    0.968
    43   1 H    0.997 --    14 C    0.966
    44   1 H    0.998 --    15 C    0.963
    45   1 H    0.999 --    19 C    0.955
    46   1 H    0.996 --    22 C    0.980
    47   1 H    0.998 --    22 C    0.974
    48   1 H    0.998 --    22 C    0.976
    49   1 H    0.996 --    23 C    0.967
    50   1 H    0.995 --    24 C    0.966
 ---------------------------------------------------------------------------

Topologies differ in total number of bonds
Writing topology from bond orders to xtbtopo.mol

molecular dipole:
                 x           y           z       tot (Debye)
 q only:       -1.115       0.754       0.330
   full:       -1.821       1.116       0.441       5.544
molecular quadrupole (traceless):
                xx          xy          yy          xz          yz          zz
 q only:       -1.115       5.021       5.113       2.308      -3.710      -3.998
  q+dip:       -3.767       8.708       8.452       1.482      -5.441      -4.685
   full:       -4.435       8.794       6.721      -0.711      -5.490      -2.287

           -------------------------------------------------
          |                Geometry Summary                 |
           -------------------------------------------------

      molecular mass/u    :      326.4333938
   center of mass at/Å    :        0.5413017      -0.2757790      -0.1347114
  moments of inertia/u·Å² :        0.1483453E+04   0.2680599E+04   0.3638919E+04
rotational constants/cm⁻¹ :        0.1136378E-01   0.6288756E-02   0.4632594E-02

 * 50 selected distances

     #   Z          #   Z                                           value/Å
     1   8 O        2   6 C                                       1.4092672
     3   6 C        4   7 N                                       1.4646364
     4   7 N        5   6 C                                       1.4582825
     4   7 N        7   6 C                                       1.4599055
     7   6 C        8   6 C                                       1.5412949 (max)
     8   6 C        9   6 C                                       1.5343147
     9   6 C       10   6 C                                       1.5238619
     6   6 C       11   6 C                                       1.5363505
     8   6 C       11   6 C                                       1.5395467
     3   6 C       12   6 C                                       1.5361134
    11   6 C       12   6 C                                       1.5357504
    13   6 C       14   6 C                                       1.3758701
    14   6 C       15   6 C                                       1.3995925
    15   6 C       16   7 N                                       1.3039464
    16   7 N       17   6 C                                       1.3443152
    13   6 C       18   6 C                                       1.4197006
    17   6 C       18   6 C                                       1.4259346
    18   6 C       19   6 C                                       1.4123691
    19   6 C       20   6 C                                       1.3733164
    20   6 C       21   8 O                                       1.3610012
    21   8 O       22   6 C                                       1.4059234
    20   6 C       23   6 C                                       1.4143426
    17   6 C       24   6 C                                       1.4134521
    23   6 C       24   6 C                                       1.3591692
     1   8 O       25   1 H                                       0.9695497 (min)
     2   6 C       26   1 H                                       1.0997367
     3   6 C       27   1 H                                       1.0959614
     5   6 C       28   1 H                                       1.0918849
     5   6 C       29   1 H                                       1.0928550
     6   6 C       30   1 H                                       1.0906405
     6   6 C       31   1 H                                       1.0911668
     7   6 C       32   1 H                                       1.0940355
     7   6 C       33   1 H                                       1.0897846
     8   6 C       34   1 H                                       1.0973784
     9   6 C       35   1 H                                       1.0937955
     9   6 C       36   1 H                                       1.0932085
    10   6 C       37   1 H                                       1.0887206
    10   6 C       38   1 H                                       1.0873882
    10   6 C       39   1 H                                       1.0876544
    11   6 C       40   1 H                                       1.0931081
    12   6 C       41   1 H                                       1.0913229
    12   6 C       42   1 H                                       1.0863701
    14   6 C       43   1 H                                       1.0786106
    15   6 C       44   1 H                                       1.0826863
    19   6 C       45   1 H                                       1.0775962
    22   6 C       46   1 H                                       1.0888581
    22   6 C       47   1 H                                       1.0944854
    22   6 C       48   1 H                                       1.0949389
    23   6 C       49   1 H                                       1.0785919
    24   6 C       50   1 H                                       1.0783397

 * 5 distinct bonds (by element types)

   Z      Z             #   av. dist./Å        max./Å        min./Å
   1 H    6 C          25     1.0895648     1.0997367     1.0775962
   6 C    6 C          16     1.4588112     1.5412949     1.3591692
   6 C    7 N           5     1.4062172     1.4646364     1.3039464
   1 H    8 O           1     0.9695497     0.9695497     0.9695497
   6 C    8 O           3     1.3920639     1.4092672     1.3610012


optimized geometry written to: xtbopt.xyz


           -------------------------------------------------
          | TOTAL ENERGY              -70.097936954080 Eh   |
          | GRADIENT NORM               0.000325439996 Eh/α |
          | HOMO-LUMO GAP               2.473540690843 eV   |
           -------------------------------------------------

------------------------------------------------------------------------
 * finished run on 2025/05/15 at 16:17:02.786     
------------------------------------------------------------------------
 total:
 * wall-time:     0 d,  0 h,  0 min,  1.140 sec
 *  cpu-time:     0 d,  0 h,  0 min,  0.951 sec
 * ratio c/w:     0.834 speedup
 SCF:
 * wall-time:     0 d,  0 h,  0 min,  0.081 sec
 *  cpu-time:     0 d,  0 h,  0 min,  0.074 sec
 * ratio c/w:     0.908 speedup
 ANC optimizer:
 * wall-time:     0 d,  0 h,  0 min,  1.030 sec
 *  cpu-time:     0 d,  0 h,  0 min,  0.862 sec
 * ratio c/w:     0.837 speedup



----- Single-point -----
      -----------------------------------------------------------      
     |                   =====================                   |     
     |                           x T B                           |     
     |                   =====================                   |     
     |                         S. Grimme                         |     
     |          Mulliken Center for Theoretical Chemistry        |     
     |                    University of Bonn                     |     
      -----------------------------------------------------------      

   * xtb version 6.7.1 (edcfbbe) compiled by 'conda@3ef47c1a292c' on 2024-11-25

   xtb is free software: you can redistribute it and/or modify it under
   the terms of the GNU Lesser General Public License as published by
   the Free Software Foundation, either version 3 of the License, or
   (at your option) any later version.
   
   xtb is distributed in the hope that it will be useful,
   but WITHOUT ANY WARRANTY; without even the implied warranty of
   MERCHANTABILITY or FITNESS FOR A PARTICULAR PURPOSE.  See the
   GNU Lesser General Public License for more details.
   
   Cite this work as:
   * C. Bannwarth, E. Caldeweyher, S. Ehlert, A. Hansen, P. Pracht,
     J. Seibert, S. Spicher, S. Grimme, WIREs Comput. Mol. Sci., 2020, 11,
     e01493. DOI: 10.1002/wcms.1493
   
   for GFN2-xTB:
   * C. Bannwarth, S. Ehlert and S. Grimme., J. Chem. Theory Comput., 2019,
     15, 1652-1671. DOI: 10.1021/acs.jctc.8b01176
   for GFN1-xTB:
   * S. Grimme, C. Bannwarth, P. Shushkov, J. Chem. Theory Comput., 2017,
     13, 1989-2009. DOI: 10.1021/acs.jctc.7b00118
   for GFN0-xTB:
   * P. Pracht, E. Caldeweyher, S. Ehlert, S. Grimme, ChemRxiv, 2019, preprint.
     DOI: 10.26434/chemrxiv.8326202.v1
   for GFN-FF:
   * S. Spicher and S. Grimme, Angew. Chem. Int. Ed., 2020, 59, 15665-15673.
     DOI: 10.1002/anie.202004239
   
   for ALPB and GBSA implicit solvation:
   * S. Ehlert, M. Stahn, S. Spicher, S. Grimme, J. Chem. Theory Comput.,
     2021, 17, 4250-4261. DOI: 10.1021/acs.jctc.1c00471
   
   for ddCOSMO and CPCM-X implicit solvation:
   * M. Stahn, S. Ehlert, S. Grimme, J. Phys. Chem. A,
     2023, XX, XXXX-XXXX. DOI: 10.1021/acs.jpca.3c04382
   
   for DFT-D4:
   * E. Caldeweyher, C. Bannwarth and S. Grimme, J. Chem. Phys., 2017,
     147, 034112. DOI: 10.1063/1.4993215
   * E. Caldeweyher, S. Ehlert, A. Hansen, H. Neugebauer, S. Spicher,
     C. Bannwarth and S. Grimme, J. Chem. Phys., 2019, 150, 154122.
     DOI: 10.1063/1.5090222
   * E. Caldeweyher, J.-M. Mewes, S. Ehlert and S. Grimme, Phys. Chem. Chem. Phys.
     2020, 22, 8499-8512. DOI: 10.1039/D0CP00502A
   
   for sTDA-xTB:
   * S. Grimme and C. Bannwarth, J. Chem. Phys., 2016, 145, 054103.
     DOI: 10.1063/1.4959605
   
   in the mass-spec context:
   * V. Asgeirsson, C. Bauer and S. Grimme, Chem. Sci., 2017, 8, 4879.
     DOI: 10.1039/c7sc00601b
   * J. Koopman and S. Grimme, ACS Omega 2019, 4, 12, 15120-15133.
     DOI: 10.1021/acsomega.9b02011
   
   for metadynamics refer to:
   * S. Grimme, J. Chem. Theory Comput., 2019, 155, 2847-2862
     DOI: 10.1021/acs.jctc.9b00143
   
   for SPH calculations refer to:
   * S. Spicher and S. Grimme, J. Chem. Theory Comput., 2021, 17, 1701-1714
     DOI: 10.1021/acs.jctc.0c01306
   
   for ONIOM refer to:
   * C. Plett, A. Katbashev, S. Ehlert, S. Grimme, M. Bursch,
     Phys. Chem. Chem. Phys., 2023, 25, 17860-17868. DOI: 10.1039/D3CP02178E
   
   for DIPRO refer to:
   * J. Kohn, N. Gildemeister, S. Grimme, D. Fazzi, A. Hansen,
     J. Chem. Phys., 2023, just accepted.
   
   for PTB refer to:
   * S. Grimme, M. Mueller, A. Hansen, J. Chem. Phys., 2023, 158, 124111.
     DOI: 10.1063/5.0137838
   
   with help from (in alphabetical order)
   P. Atkinson, C. Bannwarth, F. Bohle, G. Brandenburg, E. Caldeweyher
   M. Checinski, S. Dohm, S. Ehlert, S. Ehrlich, I. Gerasimov, C. Hölzer
   A. Katbashev, J. Kohn, J. Koopman, C. Lavigne, S. Lehtola, F. März, M. Müller,
   F. Musil, H. Neugebauer, J. Pisarek, C. Plett, P. Pracht, F. Pultar,
   J. Seibert, P. Shushkov, S. Spicher, M. Stahn, M. Steiner, T. Strunk,
   J. Stückrath, T. Rose, and J. Unsleber
   
 * started run on 2025/05/15 at 16:17:02.819     
   ID    Z sym.   atoms
    1    8 O      1, 21
    2    6 C      2, 3, 5-15, 17-20, 22-24
    3    7 N      4, 16
    4    1 H      25-50

           -------------------------------------------------
          |                Calculation Setup                |
           -------------------------------------------------

          program call               : xtb /rds/general/user/hgt20/home/callum/QDESCP/Hydroquinine_rdkit_conf_10/Hydroquinine_rdkit_conf_10.xyz --acc 1 --gfn 2 --chrg 0 --uhf 0 --etemp 300 --input /rds/general/user/hgt20/home/callum/QDESCP/Hydroquinine_rdkit_conf_10/Hydroquinine_rdkit_conf_10_xtb.inp -P 1
          hostname                   : login-c
          coordinate file            : /rds/general/user/hgt20/home/callum/QDESCP/Hydroquinine_rdkit_conf_10/Hydroquinine_rdkit_conf_10.xyz
          omp threads                :                     1


           -------------------------------------------------
          |                 G F N 2 - x T B                 |
           -------------------------------------------------

        Reference                      10.1021/acs.jctc.8b01176
      * Hamiltonian:
        H0-scaling (s, p, d)           1.850000    2.230000    2.230000
        zeta-weighting                 0.500000
      * Dispersion:
        s8                             2.700000
        a1                             0.520000
        a2                             5.000000
        s9                             5.000000
      * Repulsion:
        kExp                           1.500000    1.000000
        rExp                           1.000000
      * Coulomb:
        alpha                          2.000000
        third order                    shell-resolved
        anisotropic                    true
        a3                             3.000000
        a5                             4.000000
        cn-shift                       1.200000
        cn-exp                         4.000000
        max-rad                        5.000000

q/qsh data taken from xtbrestart
CAMM data taken from xtbrestart

          ...................................................
          :                      SETUP                      :
          :.................................................:
          :  # basis functions                 122          :
          :  # atomic orbitals                 122          :
          :  # shells                           74          :
          :  # electrons                       128          :
          :  max. iterations                   250          :
          :  Hamiltonian                  GFN2-xTB          :
          :  restarted?                       true          :
          :  GBSA solvation                  false          :
          :  PC potential                    false          :
          :  electronic temp.          300.0000000     K    :
          :  accuracy                    1.0000000          :
          :  -> integral cutoff          0.2500000E+02      :
          :  -> integral neglect         0.1000000E-07      :
          :  -> SCF convergence          0.1000000E-05 Eh   :
          :  -> wf. convergence          0.1000000E-03 e    :
          :  Broyden damping             0.4000000          :
          :  net charge                          0          :
          :  unpaired electrons                  0          :
          ...................................................

 iter      E             dE          RMSdq      gap      omega  full diag
   1    -71.0701938 -0.710702E+02  0.145E-05    2.47       0.0  T
   2    -71.0701938 -0.324007E-11  0.923E-06    2.47    1531.7  T
   3    -71.0701938 -0.204636E-11  0.499E-06    2.47    2835.6  T

   *** convergence criteria satisfied after 3 iterations ***

         #    Occupation            Energy/Eh            Energy/eV
      -------------------------------------------------------------
         1        2.0000           -0.7208838             -19.6162
       ...           ...                  ...                  ...
        58        2.0000           -0.4214054             -11.4670
        59        2.0000           -0.4195028             -11.4153
        60        2.0000           -0.4045699             -11.0089
        61        2.0000           -0.3951074             -10.7514
        62        2.0000           -0.3780444             -10.2871
        63        2.0000           -0.3639901              -9.9047
        64        2.0000           -0.3583080              -9.7501 (HOMO)
        65                         -0.2674073              -7.2765 (LUMO)
        66                         -0.2289995              -6.2314
        67                         -0.1972635              -5.3678
        68                         -0.1477423              -4.0203
        69                         -0.0657266              -1.7885
       ...                                ...                  ...
       122                          0.7032483              19.1364
      -------------------------------------------------------------
                  HL-Gap            0.0909008 Eh            2.4735 eV
             Fermi-level           -0.3128577 Eh           -8.5133 eV

 SCC (total)                   0 d,  0 h,  0 min,  0.057 sec
 SCC setup                      ...        0 min,  0.000 sec (  0.808%)
 Dispersion                     ...        0 min,  0.001 sec (  1.158%)
 classical contributions        ...        0 min,  0.000 sec (  0.347%)
 integral evaluation            ...        0 min,  0.010 sec ( 17.284%)
 iterations                     ...        0 min,  0.009 sec ( 15.579%)
 molecular gradient             ...        0 min,  0.037 sec ( 64.381%)
 printout                       ...        0 min,  0.000 sec (  0.430%)

         :::::::::::::::::::::::::::::::::::::::::::::::::::::
         ::                     SUMMARY                     ::
         :::::::::::::::::::::::::::::::::::::::::::::::::::::
         :: total energy             -70.097936954100 Eh    ::
         :: gradient norm              0.000325445130 Eh/a0 ::
         :: HOMO-LUMO gap              2.473535530956 eV    ::
         ::.................................................::
         :: SCC energy               -71.068863326736 Eh    ::
         :: -> isotropic ES            0.055623759691 Eh    ::
         :: -> anisotropic ES          0.008820983325 Eh    ::
         :: -> anisotropic XC          0.034689252088 Eh    ::
         :: -> dispersion             -0.057121827729 Eh    ::
         :: repulsion energy           0.970926372636 Eh    ::
         :: add. restraining           0.000000000000 Eh    ::
         :: total charge              -0.000000000000 e     ::
         :::::::::::::::::::::::::::::::::::::::::::::::::::::

           -------------------------------------------------
          |                Property Printout                |
           -------------------------------------------------

    * Orbital Energies and Occupations

         #    Occupation            Energy/Eh            Energy/eV
      -------------------------------------------------------------
         1        2.0000           -0.7208838             -19.6162
       ...           ...                  ...                  ...
        52        2.0000           -0.4474756             -12.1764
        53        2.0000           -0.4425276             -12.0418
        54        2.0000           -0.4393979             -11.9566
        55        2.0000           -0.4386753             -11.9370
        56        2.0000           -0.4326215             -11.7722
        57        2.0000           -0.4241770             -11.5424
        58        2.0000           -0.4214054             -11.4670
        59        2.0000           -0.4195028             -11.4153
        60        2.0000           -0.4045699             -11.0089
        61        2.0000           -0.3951074             -10.7514
        62        2.0000           -0.3780444             -10.2871
        63        2.0000           -0.3639901              -9.9047
        64        2.0000           -0.3583080              -9.7501 (HOMO)
        65                         -0.2674073              -7.2765 (LUMO)
        66                         -0.2289995              -6.2314
        67                         -0.1972635              -5.3678
        68                         -0.1477423              -4.0203
        69                         -0.0657266              -1.7885
        70                          0.0091493               0.2490
        71                          0.0190390               0.5181
        72                          0.0284656               0.7746
        73                          0.0348066               0.9471
        74                          0.0514157               1.3991
        75                          0.0534492               1.4544
       ...                                ...                  ...
       122                          0.7032483              19.1364
      -------------------------------------------------------------
                  HL-Gap            0.0909008 Eh            2.4735 eV
             Fermi-level           -0.3128577 Eh           -8.5133 eV

     #   Z          covCN         q      C6AA      α(0)
     1   8 O        1.656    -0.450    21.836     6.308
     2   6 C        3.733     0.112    18.837     6.195
     3   6 C        3.829     0.034    19.983     6.360
     4   7 N        2.729    -0.201    25.358     7.479
     5   6 C        3.783     0.010    20.432     6.439
     6   6 C        3.811    -0.065    21.740     6.637
     7   6 C        3.773     0.008    20.479     6.448
     8   6 C        3.857    -0.029    21.051     6.525
     9   6 C        3.799    -0.056    21.591     6.616
    10   6 C        3.750    -0.096    22.391     6.749
    11   6 C        3.865    -0.009    20.695     6.469
    12   6 C        3.808    -0.066    21.761     6.640
    13   6 C        2.973     0.011    27.760     8.642
    14   6 C        2.918    -0.043    29.068     8.841
    15   6 C        2.904     0.059    26.666     8.467
    16   7 N        1.844    -0.232    26.939     7.692
    17   6 C        2.978     0.082    26.159     8.390
    18   6 C        2.981    -0.005    28.152     8.703
    19   6 C        2.913    -0.079    29.965     8.976
    20   6 C        2.861     0.143    24.879     8.176
    21   8 O        1.706    -0.266    18.405     5.792
    22   6 C        3.643     0.037    20.294     6.476
    23   6 C        2.916    -0.049    29.204     8.862
    24   6 C        2.922    -0.038    28.938     8.822
    25   1 H        0.804     0.304     0.708     1.322
    26   1 H        0.923     0.013     2.838     2.634
    27   1 H        0.924     0.035     2.511     2.478
    28   1 H        0.924     0.033     2.542     2.493
    29   1 H        0.924     0.032     2.562     2.503
    30   1 H        0.924     0.028     2.622     2.532
    31   1 H        0.924     0.030     2.592     2.518
    32   1 H        0.924     0.028     2.618     2.531
    33   1 H        0.925     0.037     2.495     2.470
    34   1 H        0.924     0.028     2.619     2.531
    35   1 H        0.924     0.031     2.566     2.505
    36   1 H        0.924     0.032     2.558     2.501
    37   1 H        0.925     0.033     2.546     2.495
    38   1 H        0.925     0.034     2.529     2.487
    39   1 H        0.925     0.028     2.612     2.527
    40   1 H        0.924     0.023     2.689     2.565
    41   1 H        0.924     0.025     2.659     2.550
    42   1 H        0.925     0.038     2.481     2.463
    43   1 H        0.926     0.048     2.340     2.392
    44   1 H        0.925     0.037     2.493     2.469
    45   1 H        0.926     0.030     2.585     2.514
    46   1 H        0.925     0.062     2.170     2.304
    47   1 H        0.924     0.041     2.434     2.440
    48   1 H        0.924     0.040     2.446     2.446
    49   1 H        0.926     0.055     2.257     2.349
    50   1 H        0.926     0.062     2.177     2.307

 Mol. C6AA /au·bohr⁶  :      24672.064769
 Mol. C8AA /au·bohr⁸  :     567128.256504
 Mol. α(0) /au        :        240.031098


Wiberg/Mayer (AO) data.
largest (>0.10) Wiberg bond orders for each atom

 ---------------------------------------------------------------------------
     #   Z sym  total        # sym  WBO       # sym  WBO       # sym  WBO
 ---------------------------------------------------------------------------
     1   8 O    1.953 --     2 C    0.994    25 H    0.873
     2   6 C    3.962 --     1 O    0.994    13 C    0.990     3 C    0.954
                            26 H    0.946
     3   6 C    3.982 --     4 N    0.987    12 C    0.985    27 H    0.963
                             2 C    0.954
     4   7 N    3.130 --     7 C    1.000     5 C    1.000     3 C    0.987
     5   6 C    3.986 --     4 N    1.000     6 C    0.990    28 H    0.976
                            29 H    0.975
     6   6 C    3.997 --    11 C    0.997     5 C    0.990    31 H    0.980
                            30 H    0.979
     7   6 C    3.986 --     4 N    1.000     8 C    0.982    32 H    0.975
                            33 H    0.967
     8   6 C    3.994 --     9 C    0.996    11 C    0.985     7 C    0.982
                            34 H    0.968
     9   6 C    3.996 --    10 C    1.019     8 C    0.996    36 H    0.977
                            35 H    0.977
    10   6 C    3.998 --     9 C    1.019    37 H    0.986    38 H    0.983
                            39 H    0.982
    11   6 C    3.996 --     6 C    0.997    12 C    0.997     8 C    0.985
                            40 H    0.969
    12   6 C    3.997 --    11 C    0.997     3 C    0.985    41 H    0.979
                            42 H    0.968
    13   6 C    3.986 --    14 C    1.511    18 C    1.265     2 C    0.990
                            16 N    0.103
    14   6 C    3.990 --    13 C    1.511    15 C    1.324    43 H    0.966
    15   6 C    3.973 --    16 N    1.533    14 C    1.324    44 H    0.963
    16   7 N    3.062 --    15 C    1.533    17 C    1.300    13 C    0.103
    17   6 C    3.983 --    16 N    1.300    24 C    1.250    18 C    1.236
    18   6 C    3.989 --    19 C    1.280    13 C    1.265    17 C    1.236
    19   6 C    3.984 --    20 C    1.475    18 C    1.280    45 H    0.955
                            24 C    0.104
    20   6 C    3.934 --    19 C    1.475    23 C    1.243    21 O    1.065
    21   8 O    2.230 --    20 C    1.065    22 C    0.985
    22   6 C    3.946 --    21 O    0.985    46 H    0.980    48 H    0.976
                            47 H    0.974
    23   6 C    3.988 --    24 C    1.593    20 C    1.243    49 H    0.967
    24   6 C    3.989 --    23 C    1.593    17 C    1.250    50 H    0.966
                            19 C    0.104
    25   1 H    0.907 --     1 O    0.873
    26   1 H    1.000 --     2 C    0.946
    27   1 H    0.999 --     3 C    0.963
    28   1 H    0.998 --     5 C    0.976
[...]
     DOI: 10.1063/1.4959605
   
   in the mass-spec context:
   * V. Asgeirsson, C. Bauer and S. Grimme, Chem. Sci., 2017, 8, 4879.
     DOI: 10.1039/c7sc00601b
   * J. Koopman and S. Grimme, ACS Omega 2019, 4, 12, 15120-15133.
     DOI: 10.1021/acsomega.9b02011
   
   for metadynamics refer to:
   * S. Grimme, J. Chem. Theory Comput., 2019, 155, 2847-2862
     DOI: 10.1021/acs.jctc.9b00143
   
   for SPH calculations refer to:
   * S. Spicher and S. Grimme, J. Chem. Theory Comput., 2021, 17, 1701-1714
     DOI: 10.1021/acs.jctc.0c01306
   
   for ONIOM refer to:
   * C. Plett, A. Katbashev, S. Ehlert, S. Grimme, M. Bursch,
     Phys. Chem. Chem. Phys., 2023, 25, 17860-17868. DOI: 10.1039/D3CP02178E
   
   for DIPRO refer to:
   * J. Kohn, N. Gildemeister, S. Grimme, D. Fazzi, A. Hansen,
     J. Chem. Phys., 2023, just accepted.
   
   for PTB refer to:
   * S. Grimme, M. Mueller, A. Hansen, J. Chem. Phys., 2023, 158, 124111.
     DOI: 10.1063/5.0137838
   
   with help from (in alphabetical order)
   P. Atkinson, C. Bannwarth, F. Bohle, G. Brandenburg, E. Caldeweyher
   M. Checinski, S. Dohm, S. Ehlert, S. Ehrlich, I. Gerasimov, C. Hölzer
   A. Katbashev, J. Kohn, J. Koopman, C. Lavigne, S. Lehtola, F. März, M. Müller,
   F. Musil, H. Neugebauer, J. Pisarek, C. Plett, P. Pracht, F. Pultar,
   J. Seibert, P. Shushkov, S. Spicher, M. Stahn, M. Steiner, T. Strunk,
   J. Stückrath, T. Rose, and J. Unsleber
   
 * started run on 2025/05/15 at 16:17:05.497     
   ID    Z sym.   atoms
    1    8 O      1, 21
    2    6 C      2, 3, 5-15, 17-20, 22-24
    3    7 N      4, 16
    4    1 H      25-50

           -------------------------------------------------
          |                Calculation Setup                |
           -------------------------------------------------

          program call               : xtb /rds/general/user/hgt20/home/callum/QDESCP/Hydroquinine_rdkit_conf_10/Hydroquinine_rdkit_conf_10.xyz --acc 1 --gfn 2 --chrg 0 --uhf 2 --etemp 300 --input /rds/general/user/hgt20/home/callum/QDESCP/Hydroquinine_rdkit_conf_10/Hydroquinine_rdkit_conf_10_xtb.inp -P 1
          hostname                   : login-c
          coordinate file            : /rds/general/user/hgt20/home/callum/QDESCP/Hydroquinine_rdkit_conf_10/Hydroquinine_rdkit_conf_10.xyz
          omp threads                :                     1


           -------------------------------------------------
          |                 G F N 2 - x T B                 |
           -------------------------------------------------

        Reference                      10.1021/acs.jctc.8b01176
      * Hamiltonian:
        H0-scaling (s, p, d)           1.850000    2.230000    2.230000
        zeta-weighting                 0.500000
      * Dispersion:
        s8                             2.700000
        a1                             0.520000
        a2                             5.000000
        s9                             5.000000
      * Repulsion:
        kExp                           1.500000    1.000000
        rExp                           1.000000
      * Coulomb:
        alpha                          2.000000
        third order                    shell-resolved
        anisotropic                    true
        a3                             3.000000
        a5                             4.000000
        cn-shift                       1.200000
        cn-exp                         4.000000
        max-rad                        5.000000


          ...................................................
          :                      SETUP                      :
          :.................................................:
          :  # basis functions                 122          :
          :  # atomic orbitals                 122          :
          :  # shells                           74          :
          :  # electrons                       128          :
          :  max. iterations                   250          :
          :  Hamiltonian                  GFN2-xTB          :
          :  restarted?                      false          :
          :  GBSA solvation                  false          :
          :  PC potential                    false          :
          :  electronic temp.          300.0000000     K    :
          :  accuracy                    1.0000000          :
          :  -> integral cutoff          0.2500000E+02      :
          :  -> integral neglect         0.1000000E-07      :
          :  -> SCF convergence          0.1000000E-05 Eh   :
          :  -> wf. convergence          0.1000000E-03 e    :
          :  Broyden damping             0.4000000          :
          :  net charge                          0          :
          :  unpaired electrons                  2          :
          ...................................................

 iter      E             dE          RMSdq      gap      omega  full diag
   1    -70.6826094 -0.706826E+02  0.335E+00    0.96       0.0  T
   2    -70.8297962 -0.147187E+00  0.251E+00    1.01       1.0  T
   3    -70.8082718  0.215245E-01  0.207E+00    1.10       1.0  T
   4    -70.8381303 -0.298586E-01  0.143E+00    0.98       1.0  T
   5    -70.7419080  0.962223E-01  0.147E+00    1.01       1.0  T
   6    -70.9253963 -0.183488E+00  0.798E-01    1.01       1.0  T
   7    -70.9499102 -0.245139E-01  0.501E-01    0.97       1.0  T
   8    -70.9633121 -0.134019E-01  0.192E-01    0.97       1.0  T
   9    -70.9618172  0.149497E-02  0.239E-01    0.98       1.0  T
  10    -70.9644304 -0.261327E-02  0.107E-01    0.98       1.0  T
  11    -70.9652345 -0.804027E-03  0.588E-02    0.98       1.0  T
  12    -70.9653923 -0.157807E-03  0.238E-02    0.98       1.0  T
  13    -70.9654355 -0.432691E-04  0.562E-03    0.98       2.5  T
  14    -70.9654343  0.119668E-05  0.555E-03    0.98       2.5  T
  15    -70.9654346 -0.264082E-06  0.443E-03    0.98       3.2  T
  16    -70.9654363 -0.164174E-05  0.206E-03    0.98       6.9  T
  17    -70.9654367 -0.399690E-06  0.683E-04    0.98      20.7  T
  18    -70.9654367 -0.152600E-07  0.480E-04    0.98      29.5  T

   *** convergence criteria satisfied after 18 iterations ***

         #    Occupation            Energy/Eh            Energy/eV
      -------------------------------------------------------------
         1        2.0000           -0.7176678             -19.5287
       ...           ...                  ...                  ...
        59        2.0000           -0.4144132             -11.2768
        60        2.0000           -0.4029524             -10.9649
        61        2.0000           -0.3833605             -10.4318
        62        1.9975           -0.3739837             -10.1766
        63        1.6478           -0.3688825             -10.0378
        64        1.3547           -0.3677352             -10.0066
        65        1.0000           -0.2553883              -6.9495 (HOMO)
        66                         -0.2194827              -5.9724 (LUMO)
        67                         -0.1871196              -5.0918
        68                         -0.1356218              -3.6905
        69                         -0.0570492              -1.5524
        70                          0.0044838               0.1220
       ...                                ...                  ...
       122                          0.7127300              19.3944
      -------------------------------------------------------------
                  HL-Gap            0.0359055 Eh            0.9770 eV
             Fermi-level           -0.3028696 Eh           -8.2415 eV

 transition dipole moment (au) for excitation:          64          65
     X       Y       Z   
  -0.7254  -0.0894  -0.4147  total (au/Debye):    0.840   2.136
 dE (eV)             :    3.057
 oscillator strength :  0.74804E-01

 SCC (total)                   0 d,  0 h,  0 min,  0.187 sec
 SCC setup                      ...        0 min,  0.000 sec (  0.227%)
 Dispersion                     ...        0 min,  0.001 sec (  0.330%)
 classical contributions        ...        0 min,  0.000 sec (  0.105%)
 integral evaluation            ...        0 min,  0.010 sec (  5.206%)
 iterations                     ...        0 min,  0.094 sec ( 50.431%)
 molecular gradient             ...        0 min,  0.073 sec ( 39.083%)
 printout                       ...        0 min,  0.009 sec (  4.611%)

         :::::::::::::::::::::::::::::::::::::::::::::::::::::
         ::                     SUMMARY                     ::
         :::::::::::::::::::::::::::::::::::::::::::::::::::::
         :: total energy             -69.993179849743 Eh    ::
         :: gradient norm              0.102565911908 Eh/a0 ::
         :: HOMO-LUMO gap              0.977039339579 eV    ::
         ::.................................................::
         :: SCC energy               -70.964106222379 Eh    ::
         :: -> isotropic ES            0.052733742418 Eh    ::
         :: -> anisotropic ES          0.010472879833 Eh    ::
         :: -> anisotropic XC          0.028302722371 Eh    ::
         :: -> dispersion             -0.057023126786 Eh    ::
         :: repulsion energy           0.970926372636 Eh    ::
         :: add. restraining           0.000000000000 Eh    ::
         :: total charge               0.000000000000 e     ::
         :::::::::::::::::::::::::::::::::::::::::::::::::::::

           -------------------------------------------------
          |                Property Printout                |
           -------------------------------------------------

    * Orbital Energies and Occupations

         #    Occupation            Energy/Eh            Energy/eV
      -------------------------------------------------------------
         1        2.0000           -0.7176678             -19.5287
       ...           ...                  ...                  ...
        53        2.0000           -0.4391677             -11.9504
        54        2.0000           -0.4348777             -11.8336
        55        2.0000           -0.4324187             -11.7667
        56        2.0000           -0.4285231             -11.6607
        57        2.0000           -0.4242353             -11.5440
        58        2.0000           -0.4207048             -11.4480
        59        2.0000           -0.4144132             -11.2768
        60        2.0000           -0.4029524             -10.9649
        61        2.0000           -0.3833605             -10.4318
        62        1.9975           -0.3739837             -10.1766
        63        1.6478           -0.3688825             -10.0378
        64        1.3547           -0.3677352             -10.0066
        65        1.0000           -0.2553883              -6.9495 (HOMO)
        66                         -0.2194827              -5.9724 (LUMO)
        67                         -0.1871196              -5.0918
        68                         -0.1356218              -3.6905
        69                         -0.0570492              -1.5524
        70                          0.0044838               0.1220
        71                          0.0143895               0.3916
        72                          0.0301439               0.8203
        73                          0.0324587               0.8832
        74                          0.0480585               1.3077
        75                          0.0522881               1.4228
        76                          0.0588155               1.6005
       ...                                ...                  ...
       122                          0.7127300              19.3944
      -------------------------------------------------------------
                  HL-Gap            0.0359055 Eh            0.9770 eV
             Fermi-level           -0.3028696 Eh           -8.2415 eV

     #   Z          covCN         q      C6AA      α(0)
     1   8 O        1.656    -0.443    21.697     6.288
     2   6 C        3.733     0.117    18.745     6.180
     3   6 C        3.829     0.030    20.041     6.370
     4   7 N        2.729    -0.182    24.929     7.415
     5   6 C        3.783     0.008    20.463     6.444
     6   6 C        3.811    -0.065    21.746     6.638
     7   6 C        3.773     0.006    20.507     6.453
     8   6 C        3.857    -0.028    21.033     6.522
     9   6 C        3.799    -0.057    21.599     6.617
    10   6 C        3.750    -0.097    22.414     6.752
    11   6 C        3.865    -0.010    20.721     6.473
    12   6 C        3.808    -0.067    21.773     6.642
    13   6 C        2.973    -0.030    28.756     8.796
    14   6 C        2.918    -0.050    29.249     8.869
    15   6 C        2.904     0.037    27.170     8.547
    16   7 N        1.844    -0.183    25.767     7.523
    17   6 C        2.978     0.084    26.133     8.386
    18   6 C        2.981     0.004    27.924     8.668
    19   6 C        2.913    -0.084    30.095     8.996
    20   6 C        2.861     0.140    24.940     8.186
    21   8 O        1.706    -0.257    18.251     5.768
    22   6 C        3.643     0.037    20.294     6.476
    23   6 C        2.916    -0.069    29.718     8.939
    24   6 C        2.922    -0.058    29.434     8.897
    25   1 H        0.804     0.301     0.717     1.330
    26   1 H        0.923     0.015     2.811     2.622
    27   1 H        0.924     0.041     2.440     2.443
    28   1 H        0.924     0.036     2.507     2.476
    29   1 H        0.924     0.036     2.499     2.472
    30   1 H        0.924     0.031     2.578     2.511
    31   1 H        0.924     0.034     2.537     2.491
    32   1 H        0.924     0.031     2.573     2.508
    33   1 H        0.925     0.041     2.434     2.440
    34   1 H        0.924     0.030     2.590     2.517
    35   1 H        0.924     0.033     2.549     2.497
    36   1 H        0.924     0.034     2.532     2.488
    37   1 H        0.925     0.034     2.526     2.486
    38   1 H        0.925     0.036     2.508     2.477
    39   1 H        0.925     0.029     2.596     2.520
    40   1 H        0.924     0.027     2.623     2.533
    41   1 H        0.924     0.031     2.566     2.505
    42   1 H        0.925     0.042     2.424     2.435
    43   1 H        0.926     0.046     2.374     2.409
    44   1 H        0.925     0.039     2.461     2.453
    45   1 H        0.926     0.029     2.598     2.521
    46   1 H        0.925     0.062     2.175     2.306
    47   1 H        0.924     0.043     2.413     2.429
    48   1 H        0.924     0.043     2.411     2.428
    49   1 H        0.926     0.044     2.396     2.421
    50   1 H        0.926     0.048     2.343     2.394

 Mol. C6AA /au·bohr⁶  :      24648.988782
 Mol. C8AA /au·bohr⁸  :     567133.977446
 Mol. α(0) /au        :        239.952871


Wiberg/Mayer (AO) data.
largest (>0.10) Wiberg bond orders for each atom

 ---------------------------------------------------------------------------
     #   Z sym  total        # sym  WBO       # sym  WBO       # sym  WBO
 ---------------------------------------------------------------------------
     1   8 O    1.959 --     2 C    0.994    25 H    0.874
     2   6 C    3.938 --     1 O    0.994    13 C    0.976     3 C    0.949
                            26 H    0.939
     3   6 C    3.968 --     4 N    0.987    12 C    0.981    27 H    0.963
                             2 C    0.949
     4   7 N    3.131 --     7 C    1.001     5 C    0.999     3 C    0.987
     5   6 C    3.980 --     4 N    0.999     6 C    0.986    28 H    0.976
                            29 H    0.974
     6   6 C    3.990 --    11 C    0.997     5 C    0.986    31 H    0.979
                            30 H    0.979
     7   6 C    3.980 --     4 N    1.001     8 C    0.977    32 H    0.974
                            33 H    0.966
     8   6 C    3.985 --     9 C    0.996    11 C    0.985     7 C    0.977
                            34 H    0.967
     9   6 C    3.995 --    10 C    1.019     8 C    0.996    35 H    0.977
                            36 H    0.977
    10   6 C    3.998 --     9 C    1.019    37 H    0.986    38 H    0.983
                            39 H    0.982
    11   6 C    3.994 --     6 C    0.997    12 C    0.997     8 C    0.985
                            40 H    0.967
    12   6 C    3.990 --    11 C    0.997     3 C    0.981    41 H    0.977
                            42 H    0.968
    13   6 C    3.852 --    14 C    1.329    18 C    1.240     2 C    0.976
    14   6 C    3.920 --    15 C    1.425    13 C    1.329    43 H    0.960
    15   6 C    3.912 --    14 C    1.425    16 N    1.352    44 H    0.950
    16   7 N    2.954 --    15 C    1.352    17 C    1.284
    17   6 C    3.922 --    16 N    1.284    24 C    1.265    18 C    1.190
    18   6 C    3.940 --    19 C    1.306    13 C    1.240    17 C    1.190
    19   6 C    3.833 --    18 C    1.306    20 C    1.301    45 H    0.947
    20   6 C    3.861 --    23 C    1.324    19 C    1.301    21 O    1.071
    21   8 O    2.204 --    20 C    1.071    22 C    0.987
    22   6 C    3.945 --    21 O    0.987    46 H    0.980    48 H    0.974
                            47 H    0.972
    23   6 C    3.970 --    24 C    1.446    20 C    1.324    49 H    0.966
    24   6 C    3.896 --    23 C    1.446    17 C    1.265    50 H    0.963
    25   1 H    0.908 --     1 O    0.874
    26   1 H    0.996 --     2 C    0.939
    27   1 H    0.998 --     3 C    0.963
    28   1 H    0.998 --     5 C    0.976
    29   1 H    0.997 --     5 C    0.974
    30   1 H    0.998 --     6 C    0.979
    31   1 H    0.998 --     6 C    0.979
    32   1 H    0.998 --     7 C    0.974
    33   1 H    0.998 --     7 C    0.966
    34   1 H    0.999 --     8 C    0.967
    35   1 H    0.999 --     9 C    0.977
    36   1 H    0.998 --     9 C    0.977
    37   1 H    0.998 --    10 C    0.986
    38   1 H    0.999 --    10 C    0.983
    39   1 H    0.999 --    10 C    0.982
    40   1 H    0.996 --    11 C    0.967
    41   1 H    0.998 --    12 C    0.977
    42   1 H    0.998 --    12 C    0.968
    43   1 H    0.991 --    14 C    0.960
    44   1 H    0.985 --    15 C    0.950
    45   1 H    0.993 --    19 C    0.947
    46   1 H    0.996 --    22 C    0.980
    47   1 H    0.994 --    22 C    0.972
    48   1 H    0.994 --    22 C    0.974
    49   1 H    0.995 --    23 C    0.966
    50   1 H    0.992 --    24 C    0.963
 ---------------------------------------------------------------------------

Topologies differ in total number of bonds
Writing topology from bond orders to xtbtopo.mol

molecular dipole:
                 x           y           z       tot (Debye)
 q only:       -1.783       0.748       0.297
   full:       -2.374       1.014       0.442       6.656
molecular quadrupole (traceless):
                xx          xy          yy          xz          yz          zz
 q only:       -3.902       4.851       6.880       1.296      -4.290      -2.978
  q+dip:       -5.055       6.222       9.789       1.452      -6.773      -4.734
   full:       -5.623       6.391       8.439      -0.342      -6.700      -2.816


           -------------------------------------------------
          | TOTAL ENERGY              -69.993179849743 Eh   |
          | GRADIENT NORM               0.102565911908 Eh/α |
          | HOMO-LUMO GAP               0.977039339579 eV   |
           -------------------------------------------------

------------------------------------------------------------------------
 * finished run on 2025/05/15 at 16:17:05.699     
------------------------------------------------------------------------
 total:
 * wall-time:     0 d,  0 h,  0 min,  0.202 sec
 *  cpu-time:     0 d,  0 h,  0 min,  0.115 sec
 * ratio c/w:     0.567 speedup
 SCF:
 * wall-time:     0 d,  0 h,  0 min,  0.187 sec
 *  cpu-time:     0 d,  0 h,  0 min,  0.101 sec
 * ratio c/w:     0.538 speedup


