57
 energy: -90.577290597315 gnorm: 0.000360584993 xtb: 6.7.1 (edcfbbe)
C            3.32344537760295        2.49669056869637        0.05154087572487
N            3.68559127217754        1.13865581800087       -0.28272172759797
C            4.97840772084465        0.78785517495282       -0.46703376866171
N            5.27552279206821       -0.45887007083209       -0.74431103966953
C            6.57445797814463       -0.76442277517280       -0.92502797029065
C            7.59759399884901        0.12466219214928       -0.84431053245770
C            7.31588619351526        1.49790249091228       -0.54504481164083
N            5.94004084724022        1.74298724471915       -0.36543386576451
O            8.09233333540595        2.42482829539601       -0.43465038005344
C            2.65827801221551        0.11360170070860       -0.36640249691782
C            1.93230405572392       -0.09521985383656        0.96549475860281
C            0.90367803957290       -1.21232155200250        0.81143250846336
C            1.64050809566488        0.40133120723852       -1.47419658797715
C            0.62857716510497       -0.74093779838503       -1.52229273685809
N           -0.03682487157540       -0.83350408552338       -0.23047481956715
C           -1.24631694488467       -1.49683198971144       -0.18147612462845
N           -1.47517826104663       -2.58787269056881        0.49203895006582
C           -2.81345526545696       -2.85100662000218        0.32824053986800
C           -3.39165022968302       -1.85160926480856       -0.48548075038720
N           -2.36210584782215       -0.99164784738688       -0.81213017635116
C           -2.55209952584388        0.32764983196812       -1.35983103856704
C           -3.37844915140307        1.17410471424941       -0.41967208325551
C           -4.52018355734210        1.83223852604376       -0.85283880735930
C           -5.27267417686646        2.59160704746410        0.02587049451773
C           -4.86762719208548        2.67625666138218        1.34464756167867
F           -5.59588699749188        3.41319609173374        2.20738005687576
C           -3.73447146300221        2.02889728248009        1.80427961947048
C           -2.99275047409748        1.27919989948163        0.91200293043319
C           -4.73436054602492       -1.86422080834545       -0.81506454250196
C           -5.49404934006241       -2.90458973912977       -0.31303701448187
C           -4.93193384773103       -3.89786094586273        0.48718599546914
C           -3.59220684532662       -3.88895904554353        0.82074109092271
H            3.78333305512332        2.81322026528686        0.99267424391826
H            3.61336790233236        3.19170574959718       -0.74221593740110
H            2.24611325042986        2.55564036557415        0.17004348796622
H            6.75084461285612       -1.80850376730360       -1.14732783681331
H            8.62372065568310       -0.16127879008824       -0.99670693067056
H            5.70751980335731        2.70331481400800       -0.15005201688030
H            3.19826466753088       -0.80399107128403       -0.61818553626796
H            2.65192536245751       -0.36149649807624        1.73966812989902
H            1.41694071933028        0.81760101192525        1.26897007248254
H            0.34415922288449       -1.35842719738670        1.73550743731896
H            1.40570669911252       -2.15810765597299        0.56695560598917
H            1.11204830523148        1.33615207903816       -1.27777800453680
H            2.15105999864906        0.48589180940054       -2.43404049809208
H            1.15372344638057       -1.68195143052935       -1.74911652172166
H           -0.10809594850536       -0.57345568575006       -2.30940664487099
H           -1.57197481099670        0.79167960081708       -1.49095913986883
H           -3.04374721415131        0.25141538386485       -2.33569640321327
H           -4.82740433699014        1.75594070830416       -1.88565991400054
H           -6.16280541981304        3.10769632187252       -0.29678501376788
H           -3.44937469366210        2.11555323667993        2.84061209270202
H           -2.10740252749875        0.76150433645767        1.25121746118728
H           -5.17542910644413       -1.09585494405419       -1.43188219208716
H           -6.54766194478471       -2.94865239480150       -0.54563571780481
H           -5.56491947344725       -4.69206950159490        0.85471609835973
H           -3.15481257145247       -4.65561640644910        1.43955957108813
