----- Optimization -----
      -----------------------------------------------------------      
     |                   =====================                   |     
     |                           x T B                           |     
     |                   =====================                   |     
     |                         S. Grimme                         |     
     |          Mulliken Center for Theoretical Chemistry        |     
     |                    University of Bonn                     |     
      -----------------------------------------------------------      

   * xtb version 6.7.1 (edcfbbe) compiled by 'conda@3ef47c1a292c' on 2024-11-25

   xtb is free software: you can redistribute it and/or modify it under
   the terms of the GNU Lesser General Public License as published by
   the Free Software Foundation, either version 3 of the License, or
   (at your option) any later version.
   
   xtb is distributed in the hope that it will be useful,
   but WITHOUT ANY WARRANTY; without even the implied warranty of
   MERCHANTABILITY or FITNESS FOR A PARTICULAR PURPOSE.  See the
   GNU Lesser General Public License for more details.
   
   Cite this work as:
   * C. Bannwarth, E. Caldeweyher, S. Ehlert, A. Hansen, P. Pracht,
     J. Seibert, S. Spicher, S. Grimme, WIREs Comput. Mol. Sci., 2020, 11,
     e01493. DOI: 10.1002/wcms.1493
   
   for GFN2-xTB:
   * C. Bannwarth, S. Ehlert and S. Grimme., J. Chem. Theory Comput., 2019,
     15, 1652-1671. DOI: 10.1021/acs.jctc.8b01176
   for GFN1-xTB:
   * S. Grimme, C. Bannwarth, P. Shushkov, J. Chem. Theory Comput., 2017,
     13, 1989-2009. DOI: 10.1021/acs.jctc.7b00118
   for GFN0-xTB:
   * P. Pracht, E. Caldeweyher, S. Ehlert, S. Grimme, ChemRxiv, 2019, preprint.
     DOI: 10.26434/chemrxiv.8326202.v1
   for GFN-FF:
   * S. Spicher and S. Grimme, Angew. Chem. Int. Ed., 2020, 59, 15665-15673.
     DOI: 10.1002/anie.202004239
   
   for ALPB and GBSA implicit solvation:
   * S. Ehlert, M. Stahn, S. Spicher, S. Grimme, J. Chem. Theory Comput.,
     2021, 17, 4250-4261. DOI: 10.1021/acs.jctc.1c00471
   
   for ddCOSMO and CPCM-X implicit solvation:
   * M. Stahn, S. Ehlert, S. Grimme, J. Phys. Chem. A,
     2023, XX, XXXX-XXXX. DOI: 10.1021/acs.jpca.3c04382
   
   for DFT-D4:
   * E. Caldeweyher, C. Bannwarth and S. Grimme, J. Chem. Phys., 2017,
     147, 034112. DOI: 10.1063/1.4993215
   * E. Caldeweyher, S. Ehlert, A. Hansen, H. Neugebauer, S. Spicher,
     C. Bannwarth and S. Grimme, J. Chem. Phys., 2019, 150, 154122.
     DOI: 10.1063/1.5090222
   * E. Caldeweyher, J.-M. Mewes, S. Ehlert and S. Grimme, Phys. Chem. Chem. Phys.
     2020, 22, 8499-8512. DOI: 10.1039/D0CP00502A
   
   for sTDA-xTB:
   * S. Grimme and C. Bannwarth, J. Chem. Phys., 2016, 145, 054103.
     DOI: 10.1063/1.4959605
   
   in the mass-spec context:
   * V. Asgeirsson, C. Bauer and S. Grimme, Chem. Sci., 2017, 8, 4879.
     DOI: 10.1039/c7sc00601b
   * J. Koopman and S. Grimme, ACS Omega 2019, 4, 12, 15120-15133.
     DOI: 10.1021/acsomega.9b02011
   
   for metadynamics refer to:
   * S. Grimme, J. Chem. Theory Comput., 2019, 155, 2847-2862
     DOI: 10.1021/acs.jctc.9b00143
   
   for SPH calculations refer to:
   * S. Spicher and S. Grimme, J. Chem. Theory Comput., 2021, 17, 1701-1714
     DOI: 10.1021/acs.jctc.0c01306
   
   for ONIOM refer to:
   * C. Plett, A. Katbashev, S. Ehlert, S. Grimme, M. Bursch,
     Phys. Chem. Chem. Phys., 2023, 25, 17860-17868. DOI: 10.1039/D3CP02178E
   
   for DIPRO refer to:
   * J. Kohn, N. Gildemeister, S. Grimme, D. Fazzi, A. Hansen,
     J. Chem. Phys., 2023, just accepted.
   
   for PTB refer to:
   * S. Grimme, M. Mueller, A. Hansen, J. Chem. Phys., 2023, 158, 124111.
     DOI: 10.1063/5.0137838
   
   with help from (in alphabetical order)
   P. Atkinson, C. Bannwarth, F. Bohle, G. Brandenburg, E. Caldeweyher
   M. Checinski, S. Dohm, S. Ehlert, S. Ehrlich, I. Gerasimov, C. Hölzer
   A. Katbashev, J. Kohn, J. Koopman, C. Lavigne, S. Lehtola, F. März, M. Müller,
   F. Musil, H. Neugebauer, J. Pisarek, C. Plett, P. Pracht, F. Pultar,
   J. Seibert, P. Shushkov, S. Spicher, M. Stahn, M. Steiner, T. Strunk,
   J. Stückrath, T. Rose, and J. Unsleber
   
 * started run on 2025/05/15 at 16:14:55.131     
   ID    Z sym.   atoms
    1    6 C      1, 3, 5-7, 10-14, 16, 18, 19, 21-25, 27-32
    2    7 N      2, 4, 8, 15, 17, 20
    3    8 O      9
    4    9 F      26
    5    1 H      33-57

           -------------------------------------------------
          |                Calculation Setup                |
           -------------------------------------------------

          program call               : xtb /rds/general/user/hgt20/home/callum/QDESCP/Mizolastine_rdkit_conf_2/Mizolastine_rdkit_conf_2.xyz --opt normal --acc 1 --gfn 2 --chrg 0 --uhf 0 -P 1
          hostname                   : login-c
          coordinate file            : /rds/general/user/hgt20/home/callum/QDESCP/Mizolastine_rdkit_conf_2/Mizolastine_rdkit_conf_2.xyz
          omp threads                :                     1


           -------------------------------------------------
          |                 G F N 2 - x T B                 |
           -------------------------------------------------

        Reference                      10.1021/acs.jctc.8b01176
      * Hamiltonian:
        H0-scaling (s, p, d)           1.850000    2.230000    2.230000
        zeta-weighting                 0.500000
      * Dispersion:
        s8                             2.700000
        a1                             0.520000
        a2                             5.000000
        s9                             5.000000
      * Repulsion:
        kExp                           1.500000    1.000000
        rExp                           1.000000
      * Coulomb:
        alpha                          2.000000
        third order                    shell-resolved
        anisotropic                    true
        a3                             3.000000
        a5                             4.000000
        cn-shift                       1.200000
        cn-exp                         4.000000
        max-rad                        5.000000


          ...................................................
          :                      SETUP                      :
          :.................................................:
          :  # basis functions                 153          :
          :  # atomic orbitals                 153          :
          :  # shells                           89          :
          :  # electrons                       164          :
          :  max. iterations                   250          :
          :  Hamiltonian                  GFN2-xTB          :
          :  restarted?                      false          :
          :  GBSA solvation                  false          :
          :  PC potential                    false          :
          :  electronic temp.          300.0000000     K    :
          :  accuracy                    1.0000000          :
          :  -> integral cutoff          0.2500000E+02      :
          :  -> integral neglect         0.1000000E-07      :
          :  -> SCF convergence          0.1000000E-05 Eh   :
          :  -> wf. convergence          0.1000000E-03 e    :
          :  Broyden damping             0.4000000          :
          :  net charge                          0          :
          :  unpaired electrons                  0          :
          ...................................................

 iter      E             dE          RMSdq      gap      omega  full diag
   1    -91.6385556 -0.916386E+02  0.380E+00    2.91       0.0  T
   2    -91.7963251 -0.157769E+00  0.234E+00    3.26       1.0  T
   3    -91.8021235 -0.579840E-02  0.122E+00    3.30       1.0  T
   4    -91.8101454 -0.802192E-02  0.406E-01    3.17       1.0  T
   5    -91.8172209 -0.707549E-02  0.102E-01    3.18       1.0  T
   6    -91.8174156 -0.194660E-03  0.519E-02    3.17       1.0  T
   7    -91.8174777 -0.621635E-04  0.199E-02    3.17       1.0  T
   8    -91.8174795 -0.173362E-05  0.906E-03    3.18       1.5  T
   9    -91.8174810 -0.155557E-05  0.325E-03    3.18       4.1  T
  10    -91.8174812 -0.208369E-06  0.130E-03    3.18      10.2  T
  11    -91.8174813 -0.312569E-07  0.616E-04    3.18      21.5  T
  12    -91.8174813 -0.543976E-08  0.272E-04    3.18      48.7  T

   *** convergence criteria satisfied after 12 iterations ***

         #    Occupation            Energy/Eh            Energy/eV
      -------------------------------------------------------------
         1        2.0000           -0.8274490             -22.5160
       ...           ...                  ...                  ...
        76        2.0000           -0.4001119             -10.8876
        77        2.0000           -0.3927077             -10.6861
        78        2.0000           -0.3843737             -10.4593
        79        2.0000           -0.3815175             -10.3816
        80        2.0000           -0.3801150             -10.3435
        81        2.0000           -0.3787915             -10.3074
        82        2.0000           -0.3721850             -10.1277 (HOMO)
        83                         -0.2554398              -6.9509 (LUMO)
        84                         -0.2520164              -6.8577
        85                         -0.2495270              -6.7900
        86                         -0.2404070              -6.5418
        87                         -0.2227841              -6.0623
       ...                                ...                  ...
       153                          0.7059047              19.2086
      -------------------------------------------------------------
                  HL-Gap            0.1167451 Eh            3.1768 eV
             Fermi-level           -0.3138124 Eh           -8.5393 eV

 SCC (total)                   0 d,  0 h,  0 min,  0.170 sec
 SCC setup                      ...        0 min,  0.001 sec (  0.341%)
 Dispersion                     ...        0 min,  0.001 sec (  0.490%)
 classical contributions        ...        0 min,  0.000 sec (  0.152%)
 integral evaluation            ...        0 min,  0.046 sec ( 27.240%)
 iterations                     ...        0 min,  0.047 sec ( 27.765%)
 molecular gradient             ...        0 min,  0.075 sec ( 43.814%)
 printout                       ...        0 min,  0.000 sec (  0.193%)

         :::::::::::::::::::::::::::::::::::::::::::::::::::::
         ::                     SUMMARY                     ::
         :::::::::::::::::::::::::::::::::::::::::::::::::::::
         :: total energy             -90.559855771129 Eh    ::
         :: gradient norm              0.101229374432 Eh/a0 ::
         :: HOMO-LUMO gap              3.176796694816 eV    ::
         ::.................................................::
         :: SCC energy               -91.817000743096 Eh    ::
         :: -> isotropic ES            0.094643035146 Eh    ::
         :: -> anisotropic ES          0.008447240961 Eh    ::
         :: -> anisotropic XC          0.045444494969 Eh    ::
         :: -> dispersion             -0.066207948706 Eh    ::
         :: repulsion energy           1.257144971967 Eh    ::
         :: add. restraining           0.000000000000 Eh    ::
         :: total charge               0.000000000000 e     ::
         :::::::::::::::::::::::::::::::::::::::::::::::::::::

      ----------------------------------------------------------- 
     |                   =====================                   |
     |                        A N C O P T                        |
     |                   =====================                   |
     |               Approximate Normal Coordinate               |
     |                Rational Function Optimizer                |
      ----------------------------------------------------------- 
      ----------------------------------------------------------- 
     |                   =====================                   |
     |                        A N C O P T                        |
     |                   =====================                   |
     |               Approximate Normal Coordinate               |
     |                Rational Function Optimizer                |
      ----------------------------------------------------------- 

          ...................................................
          :                      SETUP                      :
          :.................................................:
          :   optimization level            normal          :
          :   max. optcycles                   200          :
          :   ANC micro-cycles                  20          :
          :   degrees of freedom               165          :
          :.................................................:
          :   RF solver                   davidson          :
          :   write xtbopt.log                true          :
          :   linear?                        false          :
          :   energy convergence         0.5000000E-05 Eh   :
          :   grad. convergence          0.1000000E-02 Eh/α :
          :   maxmium RF displ.          1.0000000          :
          :   Hlow (freq-cutoff)         0.1000000E-01      :
          :   Hmax (freq-cutoff)         5.0000000          :
          :   S6 in model hess.         20.0000000          :
          ...................................................

generating ANC from exact Hessian ...
Using Lindh-Hessian (1995)
 Shifting diagonal of input Hessian by    9.8400648175294338E-003
 Lowest  eigenvalues of input Hessian
    0.000000    0.000000    0.000000    0.000000    0.000000    0.000000
    0.010000    0.010108    0.010347    0.010424    0.010763    0.010958
    0.011420    0.011908    0.012111    0.013710    0.014169    0.014543
 Highest eigenvalues
    2.037523    2.072156    2.182961    2.218513    2.285215    2.444293


........................................................................
.............................. CYCLE    1 ..............................
........................................................................

 iter      E             dE          RMSdq      gap      omega  full diag
   1    -91.8174813 -0.918175E+02  0.108E-04    3.18       0.0  T
   2    -91.8174813 -0.100570E-09  0.693E-05    3.18     191.3  T
   3    -91.8174813 -0.650147E-10  0.458E-05    3.18     289.3  T
     SCC iter.                  ...        0 min,  0.013 sec
     gradient                   ...        0 min,  0.078 sec
 * total energy  :   -90.5598558 Eh     change       -0.2212417E-08 Eh
   gradient norm :     0.1012292 Eh/α   predicted     0.0000000E+00 (-100.00%)
   displ. norm   :     0.3414454 α      lambda       -0.1613944E-01
   maximum displ.:     0.1287404 α      in ANC's #42, #33, #48, ...

........................................................................
.............................. CYCLE    2 ..............................
........................................................................

 iter      E             dE          RMSdq      gap      omega  full diag
   1    -91.8580147 -0.918580E+02  0.202E-01    3.25       0.0  T
   2    -91.8582630 -0.248285E-03  0.125E-01    3.23       1.0  T
   3    -91.8582500  0.129965E-04  0.673E-02    3.24       1.0  T
   4    -91.8583311 -0.810747E-04  0.181E-02    3.23       1.0  T
   5    -91.8583463 -0.152494E-04  0.425E-03    3.23       3.1  T
   6    -91.8583466 -0.267371E-06  0.189E-03    3.23       7.0  T
   7    -91.8583466 -0.300517E-07  0.673E-04    3.23      19.7  T
   8    -91.8583466 -0.113293E-07  0.219E-04    3.23      60.4  T
     SCC iter.                  ...        0 min,  0.030 sec
     gradient                   ...        0 min,  0.091 sec
 * total energy  :   -90.5710216 Eh     change       -0.1116586E-01 Eh
   gradient norm :     0.0488920 Eh/α   predicted    -0.9019872E-02 ( -19.22%)
   displ. norm   :     0.2875113 α      lambda       -0.4992320E-02
   maximum displ.:     0.1081957 α      in ANC's #18, #15, #33, ...

........................................................................
.............................. CYCLE    3 ..............................
........................................................................

 iter      E             dE          RMSdq      gap      omega  full diag
   1    -91.8794172 -0.918794E+02  0.130E-01    3.26       0.0  T
   2    -91.8795545 -0.137289E-03  0.796E-02    3.26       1.0  T
   3    -91.8795717 -0.171574E-04  0.465E-02    3.26       1.0  T
   4    -91.8795980 -0.263547E-04  0.131E-02    3.26       1.0  T
   5    -91.8796062 -0.816522E-05  0.257E-03    3.26       5.2  T
   6    -91.8796063 -0.107485E-06  0.116E-03    3.26      11.4  T
   7    -91.8796063 -0.963819E-08  0.389E-04    3.26      34.0  T
   8    -91.8796063 -0.316403E-08  0.143E-04    3.26      92.9  T
     SCC iter.                  ...        0 min,  0.069 sec
     gradient                   ...        0 min,  0.082 sec
 * total energy  :   -90.5740077 Eh     change       -0.2986088E-02 Eh
   gradient norm :     0.0180051 Eh/α   predicted    -0.2703564E-02 (  -9.46%)
   displ. norm   :     0.1920899 α      lambda       -0.8123960E-03
   maximum displ.:     0.0961099 α      in ANC's #7, #15, #8, ...

........................................................................
.............................. CYCLE    4 ..............................
........................................................................

 iter      E             dE          RMSdq      gap      omega  full diag
   1    -91.8819721 -0.918820E+02  0.522E-02    3.26       0.0  T
   2    -91.8819838 -0.116802E-04  0.308E-02    3.26       1.0  T
   3    -91.8819818  0.205942E-05  0.186E-02    3.26       1.0  T
   4    -91.8819896 -0.779129E-05  0.344E-03    3.26       3.9  T
   5    -91.8819902 -0.593564E-06  0.814E-04    3.26      16.3  T
   6    -91.8819902 -0.731495E-08  0.411E-04    3.26      32.3  T
     SCC iter.                  ...        0 min,  0.024 sec
     gradient                   ...        0 min,  0.087 sec
 * total energy  :   -90.5746052 Eh     change       -0.5974422E-03 Eh
   gradient norm :     0.0097429 Eh/α   predicted    -0.4211909E-03 ( -29.50%)
   displ. norm   :     0.2803138 α      lambda       -0.6423718E-03
   maximum displ.:     0.1620154 α      in ANC's #7, #8, #6, ...

........................................................................
.............................. CYCLE    5 ..............................
........................................................................

 iter      E             dE          RMSdq      gap      omega  full diag
   1    -91.8817425 -0.918817E+02  0.666E-02    3.25       0.0  T
   2    -91.8817510 -0.859196E-05  0.386E-02    3.26       1.0  T
   3    -91.8817413  0.971085E-05  0.199E-02    3.26       1.0  T
   4    -91.8817551 -0.137409E-04  0.289E-03    3.26       4.6  T
   5    -91.8817555 -0.393666E-06  0.968E-04    3.26      13.7  T
   6    -91.8817555 -0.857442E-08  0.468E-04    3.26      28.3  T
     SCC iter.                  ...        0 min,  0.063 sec
     gradient                   ...        0 min,  0.042 sec
 * total energy  :   -90.5750518 Eh     change       -0.4466351E-03 Eh
   gradient norm :     0.0066985 Eh/α   predicted    -0.3464261E-03 ( -22.44%)
   displ. norm   :     0.2776051 α      lambda       -0.3618279E-03
   maximum displ.:     0.1660581 α      in ANC's #7, #8, #6, ...

........................................................................
.............................. CYCLE    6 ..............................
........................................................................

 iter      E             dE          RMSdq      gap      omega  full diag
   1    -91.8809610 -0.918810E+02  0.614E-02    3.25       0.0  T
   2    -91.8809656 -0.456908E-05  0.356E-02    3.25       1.0  T
   3    -91.8809604  0.519239E-05  0.125E-02    3.25       1.1  T
   4    -91.8809669 -0.646246E-05  0.233E-03    3.25       5.7  T
   5    -91.8809671 -0.230955E-06  0.840E-04    3.25      15.8  T
   6    -91.8809671 -0.611766E-08  0.402E-04    3.25      33.0  T
     SCC iter.                  ...        0 min,  0.045 sec
     gradient                   ...        0 min,  0.042 sec
 * total energy  :   -90.5753337 Eh     change       -0.2819044E-03 Eh
   gradient norm :     0.0078555 Eh/α   predicted    -0.1948641E-03 ( -30.88%)
   displ. norm   :     0.3546247 α      lambda       -0.3877816E-03
   maximum displ.:     0.2014339 α      in ANC's #7, #8, #6, ...

........................................................................
.............................. CYCLE    7 ..............................
........................................................................

 iter      E             dE          RMSdq      gap      omega  full diag
   1    -91.8802345 -0.918802E+02  0.776E-02    3.23       0.0  T
   2    -91.8802399 -0.541710E-05  0.451E-02    3.24       1.0  T
   3    -91.8802365  0.339458E-05  0.101E-02    3.23       1.3  T
   4    -91.8802409 -0.431735E-05  0.266E-03    3.24       5.0  T
   5    -91.8802411 -0.272490E-06  0.974E-04    3.24      13.6  T
   6    -91.8802411 -0.630068E-08  0.464E-04    3.24      28.6  T
     SCC iter.                  ...        0 min,  0.024 sec
     gradient                   ...        0 min,  0.076 sec
 * total energy  :   -90.5756457 Eh     change       -0.3119743E-03 Eh
   gradient norm :     0.0084017 Eh/α   predicted    -0.2182752E-03 ( -30.03%)
   displ. norm   :     0.4296945 α      lambda       -0.4118092E-03
   maximum displ.:     0.2353261 α      in ANC's #7, #8, #6, ...

........................................................................
.............................. CYCLE    8 ..............................
........................................................................

 iter      E             dE          RMSdq      gap      omega  full diag
   1    -91.8798583 -0.918799E+02  0.952E-02    3.21       0.0  T
   2    -91.8798654 -0.714715E-05  0.554E-02    3.22       1.0  T
   3    -91.8798629  0.254210E-05  0.927E-03    3.22       1.4  T
   4    -91.8798664 -0.353900E-05  0.294E-03    3.22       4.5  T
   5    -91.8798667 -0.301610E-06  0.110E-03    3.22      12.0  T
   6    -91.8798668 -0.477077E-08  0.533E-04    3.22      24.9  T
   7    -91.8798668 -0.808190E-08  0.151E-04    3.22      87.9  T
     SCC iter.                  ...        0 min,  0.028 sec
     gradient                   ...        0 min,  0.076 sec
 * total energy  :   -90.5759694 Eh     change       -0.3237633E-03 Eh
   gradient norm :     0.0082998 Eh/α   predicted    -0.2439230E-03 ( -24.66%)
   displ. norm   :     0.4476983 α      lambda       -0.3587799E-03
   maximum displ.:     0.2365663 α      in ANC's #7, #8, #9, ...

........................................................................
.............................. CYCLE    9 ..............................
........................................................................

 iter      E             dE          RMSdq      gap      omega  full diag
   1    -91.8803739 -0.918804E+02  0.101E-01    3.20       0.0  T
   2    -91.8803816 -0.766496E-05  0.589E-02    3.20       1.0  T
   3    -91.8803791  0.244987E-05  0.905E-03    3.20       1.5  T
   4    -91.8803826 -0.346796E-05  0.284E-03    3.20       4.7  T
   5    -91.8803828 -0.280646E-06  0.107E-03    3.20      12.4  T
   6    -91.8803829 -0.649621E-09  0.494E-04    3.20      26.8  T
   7    -91.8803829 -0.846703E-08  0.142E-04    3.20      93.6  T
     SCC iter.                  ...        0 min,  0.028 sec
     gradient                   ...        0 min,  0.080 sec
 * total energy  :   -90.5762419 Eh     change       -0.2724278E-03 Eh
   gradient norm :     0.0076683 Eh/α   predicted    -0.2153609E-03 ( -20.95%)
   displ. norm   :     0.4029293 α      lambda       -0.2744069E-03
   maximum displ.:     0.2004686 α      in ANC's #7, #9, #8, ...

........................................................................
.............................. CYCLE   10 ..............................
........................................................................

 iter      E             dE          RMSdq      gap      omega  full diag
   1    -91.8821746 -0.918822E+02  0.926E-02    3.18       0.0  T
   2    -91.8821806 -0.601435E-05  0.540E-02    3.18       1.0  T
   3    -91.8821776  0.295888E-05  0.911E-03    3.18       1.5  T
   4    -91.8821815 -0.386302E-05  0.243E-03    3.18       5.5  T
   5    -91.8821817 -0.220980E-06  0.936E-04    3.18      14.1  T
   6    -91.8821817 -0.467708E-09  0.449E-04    3.18      29.5  T
     SCC iter.                  ...        0 min,  0.024 sec
     gradient                   ...        0 min,  0.088 sec
 * total energy  :   -90.5764460 Eh     change       -0.2040865E-03 Eh
   gradient norm :     0.0059392 Eh/α   predicted    -0.1594790E-03 ( -21.86%)
   displ. norm   :     0.3399967 α      lambda       -0.1956163E-03
   maximum displ.:     0.1586369 α      in ANC's #9, #7, #8, ...

........................................................................
.............................. CYCLE   11 ..............................
........................................................................

 iter      E             dE          RMSdq      gap      omega  full diag
   1    -91.8842037 -0.918842E+02  0.789E-02    3.17       0.0  T
   2    -91.8842079 -0.416357E-05  0.460E-02    3.18       1.0  T
   3    -91.8842042  0.370480E-05  0.946E-03    3.17       1.4  T
   4    -91.8842088 -0.455095E-05  0.199E-03    3.18       6.7  T
   5    -91.8842089 -0.148062E-06  0.793E-04    3.18      16.7  T
   6    -91.8842089 -0.344207E-08  0.416E-04    3.18      31.8  T
     SCC iter.                  ...        0 min,  0.024 sec
     gradient                   ...        0 min,  0.088 sec
 * total energy  :   -90.5765891 Eh     change       -0.1431174E-03 Eh
   gradient norm :     0.0040416 Eh/α   predicted    -0.1091183E-03 ( -23.76%)
   displ. norm   :     0.2941472 α      lambda       -0.1280017E-03
   maximum displ.:     0.1431733 α      in ANC's #9, #7, #8, ...

........................................................................
.............................. CYCLE   12 ..............................
........................................................................

 iter      E             dE          RMSdq      gap      omega  full diag
   1    -91.8849208 -0.918849E+02  0.670E-02    3.17       0.0  T
   2    -91.8849237 -0.298967E-05  0.391E-02    3.17       1.0  T
   3    -91.8849202  0.354912E-05  0.902E-03    3.17       1.5  T
   4    -91.8849245 -0.429218E-05  0.166E-03    3.17       8.0  T
   5    -91.8849246 -0.977660E-07  0.673E-04    3.17      19.7  T
   6    -91.8849246 -0.379424E-08  0.356E-04    3.17      37.2  T
     SCC iter.                  ...        0 min,  0.024 sec
     gradient                   ...        0 min,  0.088 sec
 * total energy  :   -90.5766838 Eh     change       -0.9474680E-04 Eh
   gradient norm :     0.0036684 Eh/α   predicted    -0.6953920E-04 ( -26.61%)
   displ. norm   :     0.2541312 α      lambda       -0.9836304E-04
   maximum displ.:     0.1270530 α      in ANC's #9, #4, #7, ...

........................................................................
.............................. CYCLE   13 ..............................
........................................................................

 iter      E             dE          RMSdq      gap      omega  full diag
   1    -91.8855907 -0.918856E+02  0.549E-02    3.17       0.0  T
   2    -91.8855929 -0.225761E-05  0.321E-02    3.17       1.0  T
   3    -91.8855902  0.274084E-05  0.795E-03    3.17       1.7  T
   4    -91.8855935 -0.330219E-05  0.149E-03    3.17       8.9  T
   5    -91.8855936 -0.817308E-07  0.570E-04    3.17      23.2  T
   6    -91.8855936 -0.305786E-08  0.302E-04    3.17      43.9  T
     SCC iter.                  ...        0 min,  0.024 sec
     gradient                   ...        0 min,  0.082 sec
 * total energy  :   -90.5767585 Eh     change       -0.7471279E-04 Eh
   gradient norm :     0.0040410 Eh/α   predicted    -0.5236167E-04 ( -29.92%)
   displ. norm   :     0.2587991 α      lambda       -0.9167553E-04
   maximum displ.:     0.1287367 α      in ANC's #9, #4, #7, ...

........................................................................
.............................. CYCLE   14 ..............................
........................................................................

 iter      E             dE          RMSdq      gap      omega  full diag
   1    -91.8849604 -0.918850E+02  0.526E-02    3.16       0.0  T
   2    -91.8849625 -0.219304E-05  0.307E-02    3.16       1.0  T
   3    -91.8849609  0.168500E-05  0.646E-03    3.16       2.1  T
   4    -91.8849629 -0.206419E-05  0.152E-03    3.16       8.7  T
   5    -91.8849630 -0.948845E-07  0.537E-04    3.16      24.7  T
   6    -91.8849630 -0.748429E-09  0.282E-04    3.16      47.0  T
     SCC iter.                  ...        0 min,  0.065 sec
     gradient                   ...        0 min,  0.088 sec
 * total energy  :   -90.5768291 Eh     change       -0.7060571E-04 Eh
   gradient norm :     0.0038942 Eh/α   predicted    -0.4890833E-04 ( -30.73%)
   displ. norm   :     0.2420662 α      lambda       -0.9162001E-04
   maximum displ.:     0.1223395 α      in ANC's #4, #9, #13, ...

........................................................................
.............................. CYCLE   15 ..............................
........................................................................

 iter      E             dE          RMSdq      gap      omega  full diag
   1    -91.8856934 -0.918857E+02  0.420E-02    3.16       0.0  T
   2    -91.8856949 -0.151387E-05  0.245E-02    3.16       1.0  T
   3    -91.8856941  0.840867E-06  0.493E-03    3.16       2.7  T
   4    -91.8856952 -0.108166E-05  0.136E-03    3.16       9.8  T
   5    -91.8856953 -0.710883E-07  0.509E-04    3.16      26.0  T
   6    -91.8856953 -0.544006E-09  0.233E-04    3.16      56.8  T
     SCC iter.                  ...        0 min,  0.024 sec
     gradient                   ...        0 min,  0.090 sec
 * total energy  :   -90.5768933 Eh     change       -0.6412950E-04 Eh
   gradient norm :     0.0039230 Eh/α   predicted    -0.4849533E-04 ( -24.38%)
   displ. norm   :     0.2196563 α      lambda       -0.6661169E-04
   maximum displ.:     0.1062813 α      in ANC's #4, #9, #2, ...

........................................................................
.............................. CYCLE   16 ..............................
........................................................................

 iter      E             dE          RMSdq      gap      omega  full diag
   1    -91.8831337 -0.918831E+02  0.402E-02    3.16       0.0  T
   2    -91.8831353 -0.164546E-05  0.235E-02    3.16       1.0  T
   3    -91.8831338  0.145575E-05  0.627E-03    3.16       2.1  T
   4    -91.8831356 -0.174730E-05  0.141E-03    3.16       9.4  T
   5    -91.8831357 -0.751634E-07  0.503E-04    3.16      26.3  T
   6    -91.8831357 -0.183846E-08  0.237E-04    3.16      55.9  T
     SCC iter.                  ...        0 min,  0.069 sec
     gradient                   ...        0 min,  0.043 sec
 * total energy  :   -90.5769344 Eh     change       -0.4116916E-04 Eh
   gradient norm :     0.0030427 Eh/α   predicted    -0.3491291E-04 ( -15.20%)
   displ. norm   :     0.1389527 α      lambda       -0.5009865E-04
   maximum displ.:     0.0593105 α      in ANC's #4, #2, #11, ...

........................................................................
.............................. CYCLE   17 ..............................
........................................................................

 iter      E             dE          RMSdq      gap      omega  full diag
   1    -91.8856553 -0.918857E+02  0.211E-02    3.16       0.0  T
   2    -91.8856557 -0.411186E-06  0.123E-02    3.16       1.1  T
   3    -91.8856552  0.450474E-06  0.359E-03    3.16       3.7  T
   4    -91.8856558 -0.584321E-06  0.750E-04    3.16      17.7  T
   5    -91.8856558 -0.125490E-07  0.379E-04    3.16      35.0  T
     SCC iter.                  ...        0 min,  0.020 sec
     gradient                   ...        0 min,  0.097 sec
 * total energy  :   -90.5769623 Eh     change       -0.2785217E-04 Eh
   gradient norm :     0.0027172 Eh/α   predicted    -0.2553610E-04 (  -8.32%)
   displ. norm   :     0.0710192 α      lambda       -0.2225476E-04
   maximum displ.:     0.0383106 α      in ANC's #4, #3, #2, ...

........................................................................
.............................. CYCLE   18 ..............................
........................................................................

 iter      E             dE          RMSdq      gap      omega  full diag
   1    -91.8849656 -0.918850E+02  0.123E-02    3.16       0.0  T
   2    -91.8849659 -0.239865E-06  0.720E-03    3.16       1.8  T
   3    -91.8849657  0.155045E-06  0.214E-03    3.16       6.2  T
   4    -91.8849659 -0.188729E-06  0.535E-04    3.16      24.8  T
   5    -91.8849659 -0.110407E-07  0.189E-04    3.16      70.1  T
     SCC iter.                  ...        0 min,  0.020 sec
     gradient                   ...        0 min,  0.084 sec
 * total energy  :   -90.5769789 Eh     change       -0.1663780E-04 Eh
   gradient norm :     0.0019245 Eh/α   predicted    -0.1118496E-04 ( -32.77%)
   displ. norm   :     0.1278558 α      lambda       -0.2409738E-04
   maximum displ.:     0.0677837 α      in ANC's #4, #3, #2, ...

........................................................................
.............................. CYCLE   19 ..............................
........................................................................

 iter      E             dE          RMSdq      gap      omega  full diag
   1    -91.8845938 -0.918846E+02  0.209E-02    3.16       0.0  T
   2    -91.8845945 -0.732638E-06  0.123E-02    3.16       1.1  T
   3    -91.8845944  0.150302E-06  0.238E-03    3.16       5.6  T
   4    -91.8845946 -0.196911E-06  0.950E-04    3.16      13.9  T
   5    -91.8845946 -0.398220E-07  0.326E-04    3.16      40.7  T
     SCC iter.                  ...        0 min,  0.053 sec
     gradient                   ...        0 min,  0.043 sec
 * total energy  :   -90.5769978 Eh     change       -0.1889515E-04 Eh
   gradient norm :     0.0019653 Eh/α   predicted    -0.1213756E-04 ( -35.76%)
   displ. norm   :     0.0636474 α      lambda       -0.1092451E-04
   maximum displ.:     0.0341354 α      in ANC's #4, #3, #2, ...

........................................................................
.............................. CYCLE   20 ..............................
........................................................................

 iter      E             dE          RMSdq      gap      omega  full diag
   1    -91.8848191 -0.918848E+02  0.113E-02    3.16       0.0  T
   2    -91.8848192 -0.732499E-07  0.668E-03    3.16       2.0  T
   3    -91.8848190  0.149661E-06  0.178E-03    3.16       7.4  T
   4    -91.8848192 -0.179904E-06  0.337E-04    3.16      39.3  T
   5    -91.8848192 -0.246264E-08  0.151E-04    3.16      87.8  T
     SCC iter.                  ...        0 min,  0.021 sec
     gradient                   ...        0 min,  0.082 sec
 * total energy  :   -90.5770100 Eh     change       -0.1214974E-04 Eh
   gradient norm :     0.0015724 Eh/α   predicted    -0.5474265E-05 ( -54.94%)
   displ. norm   :     0.1328841 α      lambda       -0.2094465E-04
   maximum displ.:     0.0650580 α      in ANC's #4, #3, #2, ...
 * RMSD in coord.:     0.5151916 α      energy gain  -0.1715420E-01 Eh

generating ANC from exact Hessian ...
Using Lindh-Hessian (1995)
 Shifting diagonal of input Hessian by    9.8241643591418064E-003
 Lowest  eigenvalues of input Hessian
    0.000000    0.000000    0.000000    0.000000    0.000000    0.000000
    0.010000    0.010120    0.010362    0.010444    0.010794    0.011048
    0.011595    0.012146    0.012263    0.013987    0.014477    0.014845
 Highest eigenvalues
    2.117037    2.146003    2.196454    2.231205    2.315288    2.448732


........................................................................
.............................. CYCLE   21 ..............................
........................................................................

 iter      E             dE          RMSdq      gap      omega  full diag
   1    -91.8852950 -0.918853E+02  0.212E-02    3.16       0.0  T
   2    -91.8852953 -0.291462E-06  0.125E-02    3.16       1.1  T
   3    -91.8852945  0.799711E-06  0.428E-03    3.16       3.1  T
   4    -91.8852955 -0.955304E-06  0.554E-04    3.16      23.9  T
   5    -91.8852955 -0.595915E-08  0.270E-04    3.16      49.1  T
     SCC iter.                  ...        0 min,  0.020 sec
     gradient                   ...        0 min,  0.094 sec
 * total energy  :   -90.5770314 Eh     change       -0.2146599E-04 Eh
   gradient norm :     0.0017552 Eh/α   predicted     0.0000000E+00 (-100.00%)
   displ. norm   :     0.0289240 α      lambda       -0.6454151E-05
   maximum displ.:     0.0127876 α      in ANC's #3, #5, #7, ...

........................................................................
.............................. CYCLE   22 ..............................
........................................................................

 iter      E             dE          RMSdq      gap      omega  full diag
   1    -91.8851534 -0.918852E+02  0.723E-03    3.16       0.0  T
   2    -91.8851534 -0.915193E-07  0.427E-03    3.16       3.1  T
   3    -91.8851533  0.124508E-06  0.206E-03    3.16       6.4  T
   4    -91.8851535 -0.168992E-06  0.282E-04    3.16      47.0  T
   5    -91.8851535 -0.281366E-08  0.120E-04    3.16     110.4  T
     SCC iter.                  ...        0 min,  0.020 sec
     gradient                   ...        0 min,  0.083 sec
 * total energy  :   -90.5770417 Eh     change       -0.1021512E-04 Eh
   gradient norm :     0.0006428 Eh/α   predicted    -0.4471796E-05 ( -56.22%)
   displ. norm   :     0.0718283 α      lambda       -0.1162974E-04
   maximum displ.:     0.0335195 α      in ANC's #3, #5, #7, ...

........................................................................
.............................. CYCLE   23 ..............................
........................................................................

 iter      E             dE          RMSdq      gap      omega  full diag
   1    -91.8850124 -0.918850E+02  0.156E-02    3.15       0.0  T
   2    -91.8850126 -0.154345E-06  0.913E-03    3.15       1.5  T
   3    -91.8850123  0.312625E-06  0.283E-03    3.15       4.7  T
   4    -91.8850126 -0.379309E-06  0.431E-04    3.15      30.8  T
   5    -91.8850126 -0.539697E-08  0.204E-04    3.15      65.0  T
     SCC iter.                  ...        0 min,  0.020 sec
     gradient                   ...        0 min,  0.077 sec
 * total energy  :   -90.5770535 Eh     change       -0.1182832E-04 Eh
   gradient norm :     0.0010873 Eh/α   predicted    -0.5828321E-05 ( -50.73%)
   displ. norm   :     0.0777939 α      lambda       -0.7563900E-05
   maximum displ.:     0.0377245 α      in ANC's #3, #5, #7, ...

........................................................................
.............................. CYCLE   24 ..............................
........................................................................

 iter      E             dE          RMSdq      gap      omega  full diag
   1    -91.8849396 -0.918849E+02  0.157E-02    3.15       0.0  T
   2    -91.8849397 -0.583966E-07  0.918E-03    3.15       1.4  T
   3    -91.8849396  0.443426E-07  0.117E-03    3.15      11.3  T
   4    -91.8849397 -0.675671E-07  0.303E-04    3.15      43.7  T
   5    -91.8849397 -0.116674E-08  0.162E-04    3.15      81.9  T
     SCC iter.                  ...        0 min,  0.063 sec
     gradient                   ...        0 min,  0.042 sec
 * total energy  :   -90.5770626 Eh     change       -0.9136150E-05 Eh
   gradient norm :     0.0013725 Eh/α   predicted    -0.3792283E-05 ( -58.49%)
   displ. norm   :     0.1353969 α      lambda       -0.1215189E-04
   maximum displ.:     0.0660471 α      in ANC's #3, #5, #7, ...

........................................................................
.............................. CYCLE   25 ..............................
........................................................................

 iter      E             dE          RMSdq      gap      omega  full diag
   1    -91.8848989 -0.918849E+02  0.269E-02    3.15       0.0  T
   2    -91.8848991 -0.140449E-06  0.158E-02    3.15       1.0  T
   3    -91.8848991  0.327445E-07  0.124E-03    3.15      10.6  T
   4    -91.8848991 -0.832794E-07  0.460E-04    3.15      28.8  T
   5    -91.8848991 -0.291396E-08  0.219E-04    3.15      60.5  T
     SCC iter.                  ...        0 min,  0.020 sec
     gradient                   ...        0 min,  0.092 sec
 * total energy  :   -90.5770777 Eh     change       -0.1506622E-04 Eh
   gradient norm :     0.0011855 Eh/α   predicted    -0.6202091E-05 ( -58.83%)
   displ. norm   :     0.2039536 α      lambda       -0.1701175E-04
   maximum displ.:     0.1018605 α      in ANC's #3, #5, #4, ...

........................................................................
.............................. CYCLE   26 ..............................
........................................................................

 iter      E             dE          RMSdq      gap      omega  full diag
   1    -91.8849018 -0.918849E+02  0.388E-02    3.15       0.0  T
   2    -91.8849021 -0.320713E-06  0.228E-02    3.15       1.0  T
   3    -91.8849020  0.130786E-06  0.209E-03    3.15       6.3  T
   4    -91.8849022 -0.240723E-06  0.709E-04    3.15      18.7  T
   5    -91.8849022 -0.801307E-08  0.330E-04    3.15      40.1  T
     SCC iter.                  ...        0 min,  0.069 sec
     gradient                   ...        0 min,  0.042 sec
 * total energy  :   -90.5770975 Eh     change       -0.1980958E-04 Eh
   gradient norm :     0.0008269 Eh/α   predicted    -0.8665252E-05 ( -56.26%)
   displ. norm   :     0.2172971 α      lambda       -0.1562313E-04
   maximum displ.:     0.1120023 α      in ANC's #3, #5, #4, ...

........................................................................
.............................. CYCLE   27 ..............................
........................................................................

 iter      E             dE          RMSdq      gap      omega  full diag
   1    -91.8850130 -0.918850E+02  0.401E-02    3.15       0.0  T
   2    -91.8850134 -0.345293E-06  0.235E-02    3.15       1.0  T
   3    -91.8850132  0.140025E-06  0.214E-03    3.15       6.2  T
   4    -91.8850135 -0.253359E-06  0.741E-04    3.15      17.9  T
   5    -91.8850135 -0.972446E-08  0.344E-04    3.15      38.5  T
     SCC iter.                  ...        0 min,  0.020 sec
     gradient                   ...        0 min,  0.086 sec
 * total energy  :   -90.5771157 Eh     change       -0.1815983E-04 Eh
   gradient norm :     0.0009122 Eh/α   predicted    -0.7976582E-05 ( -56.08%)
   displ. norm   :     0.2051016 α      lambda       -0.1389013E-04
   maximum displ.:     0.1095598 α      in ANC's #3, #5, #4, ...

........................................................................
.............................. CYCLE   28 ..............................
........................................................................

 iter      E             dE          RMSdq      gap      omega  full diag
   1    -91.8853107 -0.918853E+02  0.357E-02    3.14       0.0  T
   2    -91.8853110 -0.315231E-06  0.210E-02    3.14       1.0  T
   3    -91.8853109  0.937178E-07  0.183E-03    3.14       7.3  T
   4    -91.8853111 -0.182035E-06  0.670E-04    3.14      19.8  T
   5    -91.8853111 -0.106472E-07  0.323E-04    3.14      41.0  T
     SCC iter.                  ...        0 min,  0.020 sec
     gradient                   ...        0 min,  0.086 sec
 * total energy  :   -90.5771321 Eh     change       -0.1646275E-04 Eh
   gradient norm :     0.0009850 Eh/α   predicted    -0.7075218E-05 ( -57.02%)
   displ. norm   :     0.2042678 α      lambda       -0.1343119E-04
   maximum displ.:     0.1122531 α      in ANC's #3, #5, #4, ...

........................................................................
.............................. CYCLE   29 ..............................
........................................................................

 iter      E             dE          RMSdq      gap      omega  full diag
   1    -91.8855165 -0.918855E+02  0.341E-02    3.14       0.0  T
   2    -91.8855168 -0.299110E-06  0.200E-02    3.14       1.0  T
   3    -91.8855167  0.109220E-06  0.187E-03    3.14       7.1  T
   4    -91.8855169 -0.195504E-06  0.643E-04    3.14      20.6  T
   5    -91.8855169 -0.883298E-08  0.316E-04    3.14      42.0  T
     SCC iter.                  ...        0 min,  0.022 sec
     gradient                   ...        0 min,  0.077 sec
 * total energy  :   -90.5771481 Eh     change       -0.1602590E-04 Eh
   gradient norm :     0.0008935 Eh/α   predicted    -0.6844420E-05 ( -57.29%)
   displ. norm   :     0.2068688 α      lambda       -0.1341609E-04
   maximum displ.:     0.1158383 α      in ANC's #3, #5, #4, ...

........................................................................
.............................. CYCLE   30 ..............................
........................................................................

 iter      E             dE          RMSdq      gap      omega  full diag
   1    -91.8855301 -0.918855E+02  0.340E-02    3.14       0.0  T
   2    -91.8855304 -0.305332E-06  0.200E-02    3.14       1.0  T
   3    -91.8855302  0.239343E-06  0.247E-03    3.14       5.4  T
   4    -91.8855305 -0.337699E-06  0.653E-04    3.14      20.3  T
   5    -91.8855305 -0.775614E-08  0.337E-04    3.14      39.4  T
     SCC iter.                  ...        0 min,  0.020 sec
     gradient                   ...        0 min,  0.085 sec
 * total energy  :   -90.5771644 Eh     change       -0.1625032E-04 Eh
   gradient norm :     0.0007323 Eh/α   predicted    -0.6837083E-05 ( -57.93%)
   displ. norm   :     0.2317625 α      lambda       -0.1423072E-04
   maximum displ.:     0.1305716 α      in ANC's #3, #5, #4, ...

........................................................................
.............................. CYCLE   31 ..............................
........................................................................

 iter      E             dE          RMSdq      gap      omega  full diag
   1    -91.8854165 -0.918854E+02  0.386E-02    3.14       0.0  T
   2    -91.8854169 -0.356972E-06  0.227E-02    3.14       1.0  T
   3    -91.8854166  0.261953E-06  0.254E-03    3.14       5.2  T
   4    -91.8854170 -0.381572E-06  0.671E-04    3.14      19.7  T
   5    -91.8854170 -0.779674E-08  0.348E-04    3.14      38.1  T
     SCC iter.                  ...        0 min,  0.020 sec
     gradient                   ...        0 min,  0.086 sec
 * total energy  :   -90.5771817 Eh     change       -0.1731703E-04 Eh
   gradient norm :     0.0008020 Eh/α   predicted    -0.7288117E-05 ( -57.91%)
   displ. norm   :     0.2695605 α      lambda       -0.1465243E-04
   maximum displ.:     0.1522622 α      in ANC's #3, #5, #4, ...

........................................................................
.............................. CYCLE   32 ..............................
........................................................................

 iter      E             dE          RMSdq      gap      omega  full diag
   1    -91.8850643 -0.918851E+02  0.471E-02    3.14       0.0  T
   2    -91.8850648 -0.465230E-06  0.276E-02    3.14       1.0  T
   3    -91.8850644  0.374985E-06  0.295E-03    3.14       4.5  T
   4    -91.8850650 -0.539910E-06  0.754E-04    3.14      17.6  T
   5    -91.8850650 -0.943108E-08  0.385E-04    3.14      34.4  T
     SCC iter.                  ...        0 min,  0.057 sec
     gradient                   ...        0 min,  0.042 sec
 * total energy  :   -90.5771986 Eh     change       -0.1690338E-04 Eh
   gradient norm :     0.0008431 Eh/α   predicted    -0.7566396E-05 ( -55.24%)
   displ. norm   :     0.2580703 α      lambda       -0.1153710E-04
   maximum displ.:     0.1463764 α      in ANC's #3, #5, #4, ...

........................................................................
.............................. CYCLE   33 ..............................
........................................................................

 iter      E             dE          RMSdq      gap      omega  full diag
   1    -91.8849597 -0.918850E+02  0.478E-02    3.14       0.0  T
   2    -91.8849602 -0.457620E-06  0.280E-02    3.14       1.0  T
   3    -91.8849598  0.376159E-06  0.283E-03    3.13       4.7  T
   4    -91.8849603 -0.535101E-06  0.725E-04    3.13      18.3  T
   5    -91.8849603 -0.104819E-07  0.343E-04    3.14      38.6  T
     SCC iter.                  ...        0 min,  0.020 sec
     gradient                   ...        0 min,  0.083 sec
 * total energy  :   -90.5772110 Eh     change       -0.1235840E-04 Eh
   gradient norm :     0.0007549 Eh/α   predicted    -0.5943336E-05 ( -51.91%)
   displ. norm   :     0.1840951 α      lambda       -0.7551701E-05
   maximum displ.:     0.1052969 α      in ANC's #3, #5, #4, ...

........................................................................
.............................. CYCLE   34 ..............................
........................................................................

 iter      E             dE          RMSdq      gap      omega  full diag
   1    -91.8851219 -0.918851E+02  0.375E-02    3.13       0.0  T
   2    -91.8851222 -0.279378E-06  0.220E-02    3.13       1.0  T
   3    -91.8851219  0.309446E-06  0.244E-03    3.13       5.4  T
   4    -91.8851223 -0.406910E-06  0.540E-04    3.13      24.5  T
   5    -91.8851223 -0.677082E-08  0.259E-04    3.13      51.1  T
     SCC iter.                  ...        0 min,  0.019 sec
     gradient                   ...        0 min,  0.092 sec
 * total energy  :   -90.5772193 Eh     change       -0.8321953E-05 Eh
   gradient norm :     0.0005559 Eh/α   predicted    -0.3834917E-05 ( -53.92%)
   displ. norm   :     0.1315515 α      lambda       -0.6303545E-05
   maximum displ.:     0.0753796 α      in ANC's #3, #5, #4, ...

........................................................................
.............................. CYCLE   35 ..............................
........................................................................

 iter      E             dE          RMSdq      gap      omega  full diag
   1    -91.8853541 -0.918854E+02  0.296E-02    3.13       0.0  T
   2    -91.8853543 -0.182010E-06  0.174E-02    3.13       1.0  T
   3    -91.8853541  0.239449E-06  0.211E-03    3.13       6.3  T
   4    -91.8853544 -0.303246E-06  0.429E-04    3.13      30.9  T
   5    -91.8853544 -0.481417E-08  0.201E-04    3.13      66.1  T
     SCC iter.                  ...        0 min,  0.063 sec
     gradient                   ...        0 min,  0.098 sec
 * total energy  :   -90.5772267 Eh     change       -0.7458043E-05 Eh
   gradient norm :     0.0004768 Eh/α   predicted    -0.3179622E-05 ( -57.37%)
   displ. norm   :     0.0995451 α      lambda       -0.6108356E-05
   maximum displ.:     0.0547854 α      in ANC's #3, #6, #5, ...

........................................................................
.............................. CYCLE   36 ..............................
........................................................................

 iter      E             dE          RMSdq      gap      omega  full diag
   1    -91.8855853 -0.918856E+02  0.246E-02    3.13       0.0  T
   2    -91.8855854 -0.149223E-06  0.144E-02    3.13       1.0  T
   3    -91.8855852  0.208602E-06  0.197E-03    3.13       6.7  T
   4    -91.8855855 -0.256596E-06  0.373E-04    3.13      35.5  T
   5    -91.8855855 -0.460646E-08  0.173E-04    3.13      76.6  T
     SCC iter.                  ...        0 min,  0.019 sec
     gradient                   ...        0 min,  0.086 sec
 * total energy  :   -90.5772342 Eh     change       -0.7471583E-05 Eh
   gradient norm :     0.0005149 Eh/α   predicted    -0.3071046E-05 ( -58.90%)
   displ. norm   :     0.0941077 α      lambda       -0.6049561E-05
   maximum displ.:     0.0535945 α      in ANC's #6, #3, #7, ...

........................................................................
.............................. CYCLE   37 ..............................
........................................................................

 iter      E             dE          RMSdq      gap      omega  full diag
   1    -91.8855420 -0.918855E+02  0.236E-02    3.13       0.0  T
   2    -91.8855421 -0.136438E-06  0.139E-02    3.13       1.0  T
   3    -91.8855419  0.179140E-06  0.189E-03    3.13       7.0  T
   4    -91.8855422 -0.224509E-06  0.365E-04    3.13      36.3  T
   5    -91.8855422 -0.364753E-08  0.178E-04    3.13      74.6  T
     SCC iter.                  ...        0 min,  0.069 sec
     gradient                   ...        0 min,  0.042 sec
 * total energy  :   -90.5772417 Eh     change       -0.7491397E-05 Eh
   gradient norm :     0.0005577 Eh/α   predicted    -0.3040899E-05 ( -59.41%)
   displ. norm   :     0.1046586 α      lambda       -0.6069190E-05
   maximum displ.:     0.0620644 α      in ANC's #6, #3, #7, ...

........................................................................
.............................. CYCLE   38 ..............................
........................................................................

 iter      E             dE          RMSdq      gap      omega  full diag
   1    -91.8856223 -0.918856E+02  0.264E-02    3.13       0.0  T
   2    -91.8856225 -0.171545E-06  0.155E-02    3.13       1.0  T
   3    -91.8856223  0.211011E-06  0.205E-03    3.13       6.5  T
   4    -91.8856225 -0.265890E-06  0.412E-04    3.13      32.1  T
   5    -91.8856225 -0.477922E-08  0.195E-04    3.13      67.9  T
     SCC iter.                  ...        0 min,  0.019 sec
     gradient                   ...        0 min,  0.086 sec
 * total energy  :   -90.5772493 Eh     change       -0.7620581E-05 Eh
   gradient norm :     0.0005530 Eh/α   predicted    -0.3052085E-05 ( -59.95%)
   displ. norm   :     0.1223301 α      lambda       -0.6294749E-05
   maximum displ.:     0.0730602 α      in ANC's #6, #3, #1, ...

........................................................................
.............................. CYCLE   39 ..............................
........................................................................

 iter      E             dE          RMSdq      gap      omega  full diag
   1    -91.8855737 -0.918856E+02  0.311E-02    3.13       0.0  T
   2    -91.8855739 -0.221289E-06  0.182E-02    3.13       1.0  T
   3    -91.8855737  0.267892E-06  0.231E-03    3.13       5.7  T
   4    -91.8855740 -0.340979E-06  0.478E-04    3.13      27.7  T
   5    -91.8855740 -0.586353E-08  0.227E-04    3.13      58.3  T
     SCC iter.                  ...        0 min,  0.019 sec
     gradient                   ...        0 min,  0.082 sec
 * total energy  :   -90.5772571 Eh     change       -0.7784548E-05 Eh
   gradient norm :     0.0005033 Eh/α   predicted    -0.3172782E-05 ( -59.24%)
   displ. norm   :     0.1628818 α      lambda       -0.7098811E-05
   maximum displ.:     0.0965004 α      in ANC's #6, #3, #1, ...

........................................................................
.............................. CYCLE   40 ..............................
........................................................................

 iter      E             dE          RMSdq      gap      omega  full diag
   1    -91.8855039 -0.918855E+02  0.416E-02    3.12       0.0  T
   2    -91.8855043 -0.380946E-06  0.244E-02    3.13       1.0  T
   3    -91.8855038  0.472757E-06  0.304E-03    3.13       4.4  T
   4    -91.8855044 -0.596664E-06  0.604E-04    3.13      21.9  T
   5    -91.8855044 -0.100062E-07  0.284E-04    3.13      46.7  T
     SCC iter.                  ...        0 min,  0.047 sec
     gradient                   ...        0 min,  0.047 sec
 * total energy  :   -90.5772654 Eh     change       -0.8238975E-05 Eh
   gradient norm :     0.0005660 Eh/α   predicted    -0.3594769E-05 ( -56.37%)
   displ. norm   :     0.2212835 α      lambda       -0.7629145E-05
   maximum displ.:     0.1302565 α      in ANC's #6, #3, #1, ...

........................................................................
.............................. CYCLE   41 ..............................
........................................................................

 iter      E             dE          RMSdq      gap      omega  full diag
   1    -91.8853708 -0.918854E+02  0.559E-02    3.12       0.0  T
   2    -91.8853714 -0.650996E-06  0.328E-02    3.12       1.0  T
   3    -91.8853706  0.802323E-06  0.395E-03    3.12       3.4  T
   4    -91.8853716 -0.101561E-05  0.809E-04    3.12      16.4  T
   5    -91.8853716 -0.179882E-07  0.382E-04    3.12      34.7  T
   6    -91.8853716  0.844693E-10  0.176E-04    3.12      75.4  T
     SCC iter.                  ...        0 min,  0.025 sec
     gradient                   ...        0 min,  0.070 sec
 * total energy  :   -90.5772730 Eh     change       -0.7613449E-05 Eh
   gradient norm :     0.0008163 Eh/α   predicted    -0.3898881E-05 ( -48.79%)
   displ. norm   :     0.1649859 α      lambda       -0.5586642E-05
   maximum displ.:     0.0941924 α      in ANC's #3, #6, #1, ...

........................................................................
.............................. CYCLE   42 ..............................
........................................................................

 iter      E             dE          RMSdq      gap      omega  full diag
   1    -91.8854701 -0.918855E+02  0.411E-02    3.12       0.0  T
   2    -91.8854704 -0.314392E-06  0.241E-02    3.12       1.0  T
   3    -91.8854699  0.448784E-06  0.288E-03    3.12       4.6  T
   4    -91.8854705 -0.559613E-06  0.527E-04    3.12      25.1  T
   5    -91.8854705 -0.784355E-08  0.252E-04    3.12      52.6  T
     SCC iter.                  ...        0 min,  0.019 sec
     gradient                   ...        0 min,  0.082 sec
 * total energy  :   -90.5772790 Eh     change       -0.6023849E-05 Eh
   gradient norm :     0.0007819 Eh/α   predicted    -0.2827612E-05 ( -53.06%)
   displ. norm   :     0.1868854 α      lambda       -0.6868319E-05
   maximum displ.:     0.1088471 α      in ANC's #3, #6, #1, ...
 * RMSD in coord.:     0.4160627 α      energy gain  -0.2690234E-03 Eh

generating ANC from exact Hessian ...
Using Lindh-Hessian (1995)
 Shifting diagonal of input Hessian by    9.8297077754954092E-003
 Lowest  eigenvalues of input Hessian
    0.000000    0.000000    0.000000    0.000000    0.000000    0.000000
    0.010000    0.010130    0.010379    0.010432    0.010799    0.011074
    0.011596    0.012187    0.012246    0.013973    0.014521    0.014992
 Highest eigenvalues
    2.117307    2.147119    2.197999    2.234051    2.315627    2.449431


........................................................................
.............................. CYCLE   43 ..............................
........................................................................

 iter      E             dE          RMSdq      gap      omega  full diag
   1    -91.8855494 -0.918855E+02  0.449E-02    3.12       0.0  T
   2    -91.8855497 -0.322291E-06  0.264E-02    3.12       1.0  T
   3    -91.8855492  0.465779E-06  0.290E-03    3.12       4.6  T
   4    -91.8855498 -0.591222E-06  0.556E-04    3.12      23.8  T
   5    -91.8855498 -0.716989E-08  0.283E-04    3.12      46.8  T
     SCC iter.                  ...        0 min,  0.051 sec
     gradient                   ...        0 min,  0.042 sec
 * total energy  :   -90.5772870 Eh     change       -0.8004794E-05 Eh
   gradient norm :     0.0006390 Eh/α   predicted     0.0000000E+00 (-100.00%)
   displ. norm   :     0.0179327 α      lambda       -0.4460266E-06
   maximum displ.:     0.0076604 α      in ANC's #5, #9, #1, ...

........................................................................
.............................. CYCLE   44 ..............................
........................................................................

 iter      E             dE          RMSdq      gap      omega  full diag
   1    -91.8857375 -0.918857E+02  0.478E-03    3.12       0.0  T
   2    -91.8857376 -0.242950E-07  0.280E-03    3.12       4.7  T
   3    -91.8857376  0.102887E-07  0.600E-04    3.12      22.1  T
   4    -91.8857376 -0.144985E-07  0.154E-04    3.12      86.2  T
     SCC iter.                  ...        0 min,  0.035 sec
     gradient                   ...        0 min,  0.042 sec
 * total energy  :   -90.5772906 Eh     change       -0.3598018E-05 Eh
   gradient norm :     0.0003592 Eh/α   predicted    -0.1410789E-05 ( -60.79%)
   displ. norm   :     0.0787084 α      lambda       -0.8918143E-05
   maximum displ.:     0.0346256 α      in ANC's #5, #9, #1, ...

   *** GEOMETRY OPTIMIZATION CONVERGED AFTER 44 ITERATIONS ***

------------------------------------------------------------------------
 total energy gain   :        -0.0174348 Eh      -10.9405 kcal/mol
 total RMSD          :         0.7883274 a0        0.4172 Å
 total power (kW/mol):        -1.0403438 (step)   -7.5994 (real)
------------------------------------------------------------------------

 ANCopt (total)                0 d,  0 h,  0 min,  6.024 sec
 optimizer setup                ...        0 min,  0.000 sec (  0.002%)
 model hessian                  ...        0 min,  0.084 sec (  1.388%)
 ANC generation                 ...        0 min,  0.008 sec (  0.140%)
 coordinate transformation      ...        0 min,  0.002 sec (  0.029%)
 single point calculation       ...        0 min,  5.815 sec ( 96.540%)
 optimization log               ...        0 min,  0.009 sec (  0.157%)
 hessian update                 ...        0 min,  0.001 sec (  0.023%)
 rational function              ...        0 min,  0.056 sec (  0.924%)

================
 final structure:
================
57
 xtb: 6.7.1 (edcfbbe)
C            3.32344537760295        2.49669056869637        0.05154087572487
N            3.68559127217754        1.13865581800087       -0.28272172759797
C            4.97840772084465        0.78785517495282       -0.46703376866171
N            5.27552279206821       -0.45887007083209       -0.74431103966953
C            6.57445797814463       -0.76442277517280       -0.92502797029065
C            7.59759399884901        0.12466219214928       -0.84431053245770
C            7.31588619351526        1.49790249091228       -0.54504481164083
N            5.94004084724022        1.74298724471915       -0.36543386576451
O            8.09233333540595        2.42482829539601       -0.43465038005344
C            2.65827801221551        0.11360170070860       -0.36640249691782
C            1.93230405572392       -0.09521985383656        0.96549475860281
C            0.90367803957290       -1.21232155200250        0.81143250846336
C            1.64050809566488        0.40133120723852       -1.47419658797715
C            0.62857716510497       -0.74093779838503       -1.52229273685809
N           -0.03682487157540       -0.83350408552338       -0.23047481956715
C           -1.24631694488467       -1.49683198971144       -0.18147612462845
N           -1.47517826104663       -2.58787269056881        0.49203895006582
C           -2.81345526545696       -2.85100662000218        0.32824053986800
C           -3.39165022968302       -1.85160926480856       -0.48548075038720
N           -2.36210584782215       -0.99164784738688       -0.81213017635116
C           -2.55209952584388        0.32764983196812       -1.35983103856704
C           -3.37844915140307        1.17410471424941       -0.41967208325551
C           -4.52018355734210        1.83223852604376       -0.85283880735930
C           -5.27267417686646        2.59160704746410        0.02587049451773
C           -4.86762719208548        2.67625666138218        1.34464756167867
F           -5.59588699749188        3.41319609173374        2.20738005687576
C           -3.73447146300221        2.02889728248009        1.80427961947048
C           -2.99275047409748        1.27919989948163        0.91200293043319
C           -4.73436054602492       -1.86422080834545       -0.81506454250196
C           -5.49404934006241       -2.90458973912977       -0.31303701448187
C           -4.93193384773103       -3.89786094586273        0.48718599546914
C           -3.59220684532662       -3.88895904554353        0.82074109092271
H            3.78333305512332        2.81322026528686        0.99267424391826
H            3.61336790233236        3.19170574959718       -0.74221593740110
H            2.24611325042986        2.55564036557415        0.17004348796622
H            6.75084461285612       -1.80850376730360       -1.14732783681331
H            8.62372065568310       -0.16127879008824       -0.99670693067056
H            5.70751980335731        2.70331481400800       -0.15005201688030
H            3.19826466753088       -0.80399107128403       -0.61818553626796
H            2.65192536245751       -0.36149649807624        1.73966812989902
H            1.41694071933028        0.81760101192525        1.26897007248254
H            0.34415922288449       -1.35842719738670        1.73550743731896
H            1.40570669911252       -2.15810765597299        0.56695560598917
H            1.11204830523148        1.33615207903816       -1.27777800453680
H            2.15105999864906        0.48589180940054       -2.43404049809208
H            1.15372344638057       -1.68195143052935       -1.74911652172166
H           -0.10809594850536       -0.57345568575006       -2.30940664487099
H           -1.57197481099670        0.79167960081708       -1.49095913986883
H           -3.04374721415131        0.25141538386485       -2.33569640321327
H           -4.82740433699014        1.75594070830416       -1.88565991400054
H           -6.16280541981304        3.10769632187252       -0.29678501376788
H           -3.44937469366210        2.11555323667993        2.84061209270202
H           -2.10740252749875        0.76150433645767        1.25121746118728
H           -5.17542910644413       -1.09585494405419       -1.43188219208716
H           -6.54766194478471       -2.94865239480150       -0.54563571780481
H           -5.56491947344725       -4.69206950159490        0.85471609835973
H           -3.15481257145247       -4.65561640644910        1.43955957108813

 Bond Distances (Angstroems)
 ---------------------------
C1-N2=1.4447         C1-H33=1.0943        C1-H34=1.0941        C1-H35=1.0854        N2-C1=1.4447         N2-C3=1.3522         
N2-C10=1.4537        C3-N2=1.3522         C3-N4=1.3113         C3-N8=1.3592         N4-C3=1.3113         N4-C5=1.3466         
C5-N4=1.3466         C5-C6=1.3579         C5-H36=1.0820        C6-C5=1.3579         C6-C7=1.4334         C6-H37=1.0761        
C7-C6=1.4334         C7-N8=1.4090         C7-O9=1.2142         N8-C3=1.3592         N8-C7=1.4090         N8-H38=1.0113        
O9-C7=1.2142         C10-N2=1.4537        C10-C11=1.5312       C10-C13=1.5316       C10-H39=1.0941       C11-C10=1.5312       
C11-C12=1.5263       C11-H40=1.0900       C11-H41=1.0913       C12-C11=1.5263       C12-N15=1.4538       C12-H42=1.0901       
C12-H43=1.0983       C13-C10=1.5316       C13-C14=1.5268       C13-H44=1.0917       C13-H45=1.0905       C14-C13=1.5268       
C14-N15=1.4561       C14-H46=1.1012       C14-H47=1.0910       N15-C12=1.4538       N15-C14=1.4561       N15-C16=1.3803       
C16-N15=1.3803       C16-N17=1.3024       C16-N20=1.3777       N17-C16=1.3024       N17-C18=1.3737       C18-N17=1.3737       
C18-C19=1.4125       C18-C32=1.3879       C19-C18=1.4125       C19-N20=1.3807       C19-C29=1.3826       N20-C16=1.3777       
N20-C19=1.3807       N20-C21=1.4410       C21-N20=1.4410       C21-C22=1.5110       C21-H48=1.0923       C21-H49=1.0954       
C22-C21=1.5110       C22-C23=1.3872       C22-C28=1.3904       C23-C22=1.3872       C23-C24=1.3838       C23-H50=1.0802       
C24-C23=1.3838       C24-C25=1.3822       C24-H51=1.0783       C25-C24=1.3822       C25-F26=1.3482       C25-C27=1.3836       
F26-C25=1.3482       C27-C25=1.3836       C27-C28=1.3814       C27-H52=1.0783       C28-C22=1.3904       C28-C27=1.3814       
C28-H53=1.0802       C29-C19=1.3826       C29-C30=1.3826       C29-H54=1.0795       C30-C29=1.3826       C30-C31=1.3939       
C30-H55=1.0799       C31-C30=1.3939       C31-C32=1.3807       C31-H56=1.0801       C32-C18=1.3879       C32-C31=1.3807       
C32-H57=1.0780       H33-C1=1.0943        H34-C1=1.0941        H35-C1=1.0854        H36-C5=1.0820        H37-C6=1.0761        
H38-N8=1.0113        H39-C10=1.0941       H40-C11=1.0900       H41-C11=1.0913       H42-C12=1.0901       H43-C12=1.0983       
H44-C13=1.0917       H45-C13=1.0905       H46-C14=1.1012       H47-C14=1.0910       H48-C21=1.0923       H49-C21=1.0954       
H50-C23=1.0802       H51-C24=1.0783       H52-C27=1.0783       H53-C28=1.0802       H54-C29=1.0795       H55-C30=1.0799       
H56-C31=1.0801       H57-C32=1.0780       
 C  H  Rav=1.0872 sigma=0.0073  Rmin=1.0761  Rmax=1.1012    24
 C  C  Rav=1.4246 sigma=0.0620  Rmin=1.3579  Rmax=1.5316    19
 N  H  Rav=1.0113 sigma=0.0000  Rmin=1.0113  Rmax=1.0113     1
 N  C  Rav=1.3895 sigma=0.0498  Rmin=1.3024  Rmax=1.4561    15
 O  C  Rav=1.2142 sigma=0.0000  Rmin=1.2142  Rmax=1.2142     1
 F  C  Rav=1.3482 sigma=0.0000  Rmin=1.3482  Rmax=1.3482     1

 selected bond angles (degree)
 --------------------
H33-C1-N2=111.44               H34-C1-N2=111.27               H34-C1-H33=109.20              H35-C1-N2=108.97               
H35-C1-H33=107.91              H35-C1-H34=107.92              C3-N2-C1=121.00                C10-N2-C1=119.94               
C10-N2-C3=119.01               N4-C3-N2=119.48                N8-C3-N2=118.94                N8-C3-N4=121.58                
C5-N4-C3=117.56                C6-C5-N4=124.77                H36-C5-N4=113.82               H36-C5-C6=121.41               
C7-C6-C5=119.45                H37-C6-C5=122.42               H37-C6-C7=118.13               N8-C7-C6=112.65                
O9-C7-C6=128.66                O9-C7-N8=118.69                C7-N8-C3=123.99                H38-N8-C3=121.37               
H38-N8-C7=114.64               C11-C10-N2=112.41              C13-C10-N2=112.26              C13-C10-C11=109.86             
H39-C10-N2=104.82              H39-C10-C11=108.65             H39-C10-C13=108.61             

 selected dihedral angles (degree)
 ---------------------------------
C3-N2-C1-H33=299.91           C3-N2-C1-H34= 62.05           C3-N2-C1-H35=180.94           C10-N2-C1-H33=117.15          
C10-N2-C1-H34=239.29          C10-N2-C1-H35=358.18          N4-C3-N2-C1=178.70            N4-C3-N2-C10=  1.43           
N8-C3-N2-C1=358.40            N8-C3-N2-C10=181.14           C5-N4-C3-N2=179.77            C5-N4-C3-N8=  0.07            
C6-C5-N4-C3=359.83            H36-C5-N4-C3=179.82           C7-C6-C5-N4=  0.09            C7-C6-C5-H36=180.10           
H37-C6-C5-N4=180.05           H37-C6-C5-H36=  0.06          N8-C7-C6-C5=  0.08            N8-C7-C6-H37=180.12           
O9-C7-C6-C5=180.06            O9-C7-C6-H37=  0.09           C7-N8-C3-N2=180.41            C7-N8-C3-N4=  0.11            
H38-N8-C3-N2=  0.40           H38-N8-C3-N4=180.09           C3-N8-C7-C6=359.82            C3-N8-C7-O9=179.84            
H38-N8-C7-C6=179.83           H38-N8-C7-O9=359.86           C11-C10-N2-C1=298.49          C11-C10-N2-C3=115.78          
C13-C10-N2-C1= 62.94          C13-C10-N2-C3=240.24          H39-C10-N2-C1=180.65          H39-C10-N2-C3=357.94          
           -------------------------------------------------
          |                Final Singlepoint                |
           -------------------------------------------------

          ...................................................
          :                      SETUP                      :
          :.................................................:
          :  # basis functions                 153          :
          :  # atomic orbitals                 153          :
          :  # shells                           89          :
          :  # electrons                       164          :
          :  max. iterations                   250          :
          :  Hamiltonian                  GFN2-xTB          :
          :  restarted?                      false          :
          :  GBSA solvation                  false          :
          :  PC potential                    false          :
          :  electronic temp.          300.0000000     K    :
          :  accuracy                    1.0000000          :
          :  -> integral cutoff          0.2500000E+02      :
          :  -> integral neglect         0.1000000E-07      :
          :  -> SCF convergence          0.1000000E-05 Eh   :
          :  -> wf. convergence          0.1000000E-03 e    :
          :  Broyden damping             0.4000000          :
          :  net charge                          0          :
          :  unpaired electrons                  0          :
          ...................................................

 iter      E             dE          RMSdq      gap      omega  full diag
   1    -91.8857376 -0.918857E+02  0.632E-05    3.12       0.0  T
   2    -91.8857376 -0.254374E-10  0.387E-05    3.12     342.3  T
   3    -91.8857376 -0.117524E-10  0.232E-05    3.12     570.9  T

   *** convergence criteria satisfied after 3 iterations ***

         #    Occupation            Energy/Eh            Energy/eV
      -------------------------------------------------------------
         1        2.0000           -0.8241667             -22.4267
       ...           ...                  ...                  ...
        76        2.0000           -0.4061639             -11.0523
        77        2.0000           -0.3946812             -10.7398
        78        2.0000           -0.3874291             -10.5425
        79        2.0000           -0.3819586             -10.3936
        80        2.0000           -0.3789795             -10.3126
        81        2.0000           -0.3774633             -10.2713
        82        2.0000           -0.3676428             -10.0041 (HOMO)
        83                         -0.2528759              -6.8811 (LUMO)
        84                         -0.2505816              -6.8187
        85                         -0.2493911              -6.7863
        86                         -0.2327006              -6.3321
        87                         -0.2162416              -5.8842
       ...                                ...                  ...
       153                          0.7046610              19.1748
      -------------------------------------------------------------
                  HL-Gap            0.1147668 Eh            3.1230 eV
             Fermi-level           -0.3102593 Eh           -8.4426 eV

 SCC (total)                   0 d,  0 h,  0 min,  0.079 sec
 SCC setup                      ...        0 min,  0.001 sec (  0.677%)
 Dispersion                     ...        0 min,  0.001 sec (  0.732%)
 classical contributions        ...        0 min,  0.000 sec (  0.327%)
 integral evaluation            ...        0 min,  0.012 sec ( 15.217%)
 iterations                     ...        0 min,  0.012 sec ( 15.169%)
 molecular gradient             ...        0 min,  0.053 sec ( 67.320%)
 printout                       ...        0 min,  0.000 sec (  0.545%)

         :::::::::::::::::::::::::::::::::::::::::::::::::::::
         ::                     SUMMARY                     ::
         :::::::::::::::::::::::::::::::::::::::::::::::::::::
         :: total energy             -90.577290597315 Eh    ::
         :: gradient norm              0.000360584993 Eh/a0 ::
         :: HOMO-LUMO gap              3.122963763351 eV    ::
         ::.................................................::
         :: SCC energy               -91.885127720821 Eh    ::
         :: -> isotropic ES            0.094287914141 Eh    ::
         :: -> anisotropic ES          0.006508759495 Eh    ::
         :: -> anisotropic XC          0.043125404271 Eh    ::
         :: -> dispersion             -0.067487176275 Eh    ::
         :: repulsion energy           1.307837123506 Eh    ::
         :: add. restraining           0.000000000000 Eh    ::
         :: total charge              -0.000000000000 e     ::
         :::::::::::::::::::::::::::::::::::::::::::::::::::::

           -------------------------------------------------
          |                Property Printout                |
           -------------------------------------------------

    * Orbital Energies and Occupations

         #    Occupation            Energy/Eh            Energy/eV
      -------------------------------------------------------------
         1        2.0000           -0.8241667             -22.4267
       ...           ...                  ...                  ...
        70        2.0000           -0.4358310             -11.8596
        71        2.0000           -0.4345035             -11.8234
        72        2.0000           -0.4344234             -11.8213
        73        2.0000           -0.4268385             -11.6149
        74        2.0000           -0.4180901             -11.3768
        75        2.0000           -0.4164968             -11.3335
        76        2.0000           -0.4061639             -11.0523
        77        2.0000           -0.3946812             -10.7398
        78        2.0000           -0.3874291             -10.5425
        79        2.0000           -0.3819586             -10.3936
        80        2.0000           -0.3789795             -10.3126
        81        2.0000           -0.3774633             -10.2713
        82        2.0000           -0.3676428             -10.0041 (HOMO)
        83                         -0.2528759              -6.8811 (LUMO)
        84                         -0.2505816              -6.8187
        85                         -0.2493911              -6.7863
        86                         -0.2327006              -6.3321
        87                         -0.2162416              -5.8842
        88                         -0.2035573              -5.5391
        89                         -0.1744589              -4.7473
        90                         -0.1219609              -3.3187
        91                         -0.1139795              -3.1015
        92                         -0.0756614              -2.0589
        93                         -0.0493651              -1.3433
       ...                                ...                  ...
       153                          0.7046610              19.1748
      -------------------------------------------------------------
                  HL-Gap            0.1147668 Eh            3.1230 eV
             Fermi-level           -0.3102593 Eh           -8.4426 eV

     #   Z          covCN         q      C6AA      α(0)
     1   6 C        3.694    -0.052    21.681     6.661
[...]
   J. Stückrath, T. Rose, and J. Unsleber
   
 * started run on 2025/05/15 at 16:15:04.442     
   ID    Z sym.   atoms
    1    6 C      1, 3, 5-7, 10-14, 16, 18, 19, 21-25, 27-32
    2    7 N      2, 4, 8, 15, 17, 20
    3    8 O      9
    4    9 F      26
    5    1 H      33-57

           -------------------------------------------------
          |                Calculation Setup                |
           -------------------------------------------------

          program call               : xtb /rds/general/user/hgt20/home/callum/QDESCP/Mizolastine_rdkit_conf_2/Mizolastine_rdkit_conf_2.xyz --acc 1 --gfn 2 --chrg 0 --uhf 2 --etemp 300 --input /rds/general/user/hgt20/home/callum/QDESCP/Mizolastine_rdkit_conf_2/Mizolastine_rdkit_conf_2_xtb.inp -P 1
          hostname                   : login-c
          coordinate file            : /rds/general/user/hgt20/home/callum/QDESCP/Mizolastine_rdkit_conf_2/Mizolastine_rdkit_conf_2.xyz
          omp threads                :                     1


           -------------------------------------------------
          |                 G F N 2 - x T B                 |
           -------------------------------------------------

        Reference                      10.1021/acs.jctc.8b01176
      * Hamiltonian:
        H0-scaling (s, p, d)           1.850000    2.230000    2.230000
        zeta-weighting                 0.500000
      * Dispersion:
        s8                             2.700000
        a1                             0.520000
        a2                             5.000000
        s9                             5.000000
      * Repulsion:
        kExp                           1.500000    1.000000
        rExp                           1.000000
      * Coulomb:
        alpha                          2.000000
        third order                    shell-resolved
        anisotropic                    true
        a3                             3.000000
        a5                             4.000000
        cn-shift                       1.200000
        cn-exp                         4.000000
        max-rad                        5.000000


          ...................................................
          :                      SETUP                      :
          :.................................................:
          :  # basis functions                 153          :
          :  # atomic orbitals                 153          :
          :  # shells                           89          :
          :  # electrons                       164          :
          :  max. iterations                   250          :
          :  Hamiltonian                  GFN2-xTB          :
          :  restarted?                      false          :
          :  GBSA solvation                  false          :
          :  PC potential                    false          :
          :  electronic temp.          300.0000000     K    :
          :  accuracy                    1.0000000          :
          :  -> integral cutoff          0.2500000E+02      :
          :  -> integral neglect         0.1000000E-07      :
          :  -> SCF convergence          0.1000000E-05 Eh   :
          :  -> wf. convergence          0.1000000E-03 e    :
          :  Broyden damping             0.4000000          :
          :  net charge                          0          :
          :  unpaired electrons                  2          :
          ...................................................

 iter      E             dE          RMSdq      gap      omega  full diag
   1    -91.3027245 -0.913027E+02  0.376E+00    0.20       0.0  T
   2    -91.3210353 -0.183108E-01  0.316E+00    0.99       1.0  T
   3    -91.4766035 -0.155568E+00  0.218E+00    0.07       1.0  T
   4    -91.3504297  0.126174E+00  0.195E+00    1.09       1.0  T
   5    -91.6155155 -0.265086E+00  0.124E+00    0.04       1.0  T
   6    -91.5107925  0.104723E+00  0.134E+00    0.57       1.0  T
   7    -91.5804437 -0.696512E-01  0.104E+00    0.36       1.0  T
   8    -91.5376060  0.428377E-01  0.114E+00    0.25       1.0  T
   9    -91.6407604 -0.103154E+00  0.822E-01    0.14       1.0  T
  10    -91.7490274 -0.108267E+00  0.247E-01    0.02       1.0  T
  11    -91.7361848  0.128426E-01  0.348E-01    0.07       1.0  T
  12    -91.6616915  0.744934E-01  0.722E-01    0.03       1.0  T
  13    -91.7518687 -0.901773E-01  0.206E-01    0.06       1.0  T
  14    -91.7498158  0.205296E-02  0.210E-01    0.06       1.0  T
  15    -91.7485212  0.129455E-02  0.215E-01    0.01       1.0  T
  16    -91.7550238 -0.650257E-02  0.722E-02    0.03       1.0  T
  17    -91.7536528  0.137099E-02  0.109E-01    0.02       1.0  T
  18    -91.7544914 -0.838545E-03  0.788E-02    0.02       1.0  T
  19    -91.7555754 -0.108404E-02  0.902E-03    0.03       1.5  T
  20    -91.7555845 -0.911930E-05  0.575E-03    0.03       2.3  T
  21    -91.7555883 -0.381040E-05  0.183E-03    0.03       7.2  T
  22    -91.7555871  0.121609E-05  0.303E-03    0.03       4.4  T
  23    -91.7555883 -0.118443E-05  0.138E-03    0.03       9.6  T
  24    -91.7555886 -0.327242E-06  0.275E-04    0.03      48.2  T
  25    -91.7555886 -0.102239E-07  0.122E-04    0.03     108.2  T

   *** convergence criteria satisfied after 25 iterations ***

         #    Occupation            Energy/Eh            Energy/eV
      -------------------------------------------------------------
         1        2.0000           -0.8123121             -22.1041
       ...           ...                  ...                  ...
        77        2.0000           -0.3953041             -10.7568
        78        2.0000           -0.3915164             -10.6537
        79        1.9996           -0.3883046             -10.5663
        80        1.9987           -0.3871502             -10.5349
        81        1.6003           -0.3812550             -10.3745
        82        1.4014           -0.3804888             -10.3536
        83        0.6000           -0.2426625              -6.6032 (HOMO)
        84        0.3469           -0.2416762              -6.5763 (LUMO)
        85        0.0526           -0.2395313              -6.5180
        86        0.0006           -0.2351724              -6.3994
        87                         -0.2144416              -5.8353
        88                         -0.2121658              -5.7733
       ...                                ...                  ...
       153                          0.7081343              19.2693
      -------------------------------------------------------------
                  HL-Gap            0.0009863 Eh            0.0268 eV
             Fermi-level           -0.3115730 Eh           -8.4783 eV

 transition dipole moment (au) for excitation:          82          83
     X       Y       Z   
  -1.6037  -0.4112   0.0810  total (au/Debye):    1.658   4.213
 dE (eV)             :    3.750
 oscillator strength :  0.35702E+00

 SCC (total)                   0 d,  0 h,  0 min,  0.170 sec
 SCC setup                      ...        0 min,  0.001 sec (  0.419%)
 Dispersion                     ...        0 min,  0.001 sec (  0.538%)
 classical contributions        ...        0 min,  0.000 sec (  0.155%)
 integral evaluation            ...        0 min,  0.013 sec (  7.470%)
 iterations                     ...        0 min,  0.102 sec ( 60.264%)
 molecular gradient             ...        0 min,  0.042 sec ( 24.914%)
 printout                       ...        0 min,  0.011 sec (  6.235%)

         :::::::::::::::::::::::::::::::::::::::::::::::::::::
         ::                     SUMMARY                     ::
         :::::::::::::::::::::::::::::::::::::::::::::::::::::
         :: total energy             -90.447141664148 Eh    ::
         :: gradient norm              0.100760540416 Eh/a0 ::
         :: HOMO-LUMO gap              0.026837614385 eV    ::
         ::.................................................::
         :: SCC energy               -91.754978787654 Eh    ::
         :: -> isotropic ES            0.088781874562 Eh    ::
         :: -> anisotropic ES          0.005897663967 Eh    ::
         :: -> anisotropic XC          0.041675063176 Eh    ::
         :: -> dispersion             -0.067384810885 Eh    ::
         :: repulsion energy           1.307837123506 Eh    ::
         :: add. restraining           0.000000000000 Eh    ::
         :: total charge               0.000000000000 e     ::
         :::::::::::::::::::::::::::::::::::::::::::::::::::::

           -------------------------------------------------
          |                Property Printout                |
           -------------------------------------------------

    * Orbital Energies and Occupations

         #    Occupation            Energy/Eh            Energy/eV
      -------------------------------------------------------------
         1        2.0000           -0.8123121             -22.1041
       ...           ...                  ...                  ...
        71        2.0000           -0.4356187             -11.8538
        72        2.0000           -0.4329306             -11.7806
        73        2.0000           -0.4208043             -11.4507
        74        2.0000           -0.4197134             -11.4210
        75        2.0000           -0.4166351             -11.3372
        76        2.0000           -0.4067342             -11.0678
        77        2.0000           -0.3953041             -10.7568
        78        2.0000           -0.3915164             -10.6537
        79        1.9996           -0.3883046             -10.5663
        80        1.9987           -0.3871502             -10.5349
        81        1.6003           -0.3812550             -10.3745
        82        1.4014           -0.3804888             -10.3536
        83        0.6000           -0.2426625              -6.6032 (HOMO)
        84        0.3469           -0.2416762              -6.5763 (LUMO)
        85        0.0526           -0.2395313              -6.5180
        86        0.0006           -0.2351724              -6.3994
        87                         -0.2144416              -5.8353
        88                         -0.2121658              -5.7733
        89                         -0.1835576              -4.9949
        90                         -0.1094163              -2.9774
        91                         -0.1093419              -2.9753
        92                         -0.0840098              -2.2860
        93                         -0.0542310              -1.4757
        94                         -0.0256438              -0.6978
       ...                                ...                  ...
       153                          0.7081343              19.2693
      -------------------------------------------------------------
                  HL-Gap            0.0009863 Eh            0.0268 eV
             Fermi-level           -0.3115730 Eh           -8.4783 eV

     #   Z          covCN         q      C6AA      α(0)
     1   6 C        3.694    -0.053    21.715     6.667
     2   7 N        2.746    -0.078    22.759     7.085
     3   6 C        2.835     0.198    23.786     7.992
     4   7 N        1.845    -0.280    28.109     7.857
     5   6 C        2.903     0.029    27.352     8.575
     6   6 C        2.904    -0.081    30.013     8.983
     7   6 C        2.767     0.267    22.493     7.767
     8   7 N        2.705    -0.197    25.281     7.468
     9   8 O        0.859    -0.435    22.397     6.345
    10   6 C        3.806     0.022    20.205     6.399
    11   6 C        3.808    -0.072    21.870     6.657
    12   6 C        3.772     0.002    20.585     6.465
    13   6 C        3.808    -0.071    21.848     6.654
    14   6 C        3.763     0.006    20.520     6.457
    15   7 N        2.738    -0.120    23.599     7.215
    16   6 C        3.146     0.185    23.817     7.984
    17   7 N        1.882    -0.318    29.087     7.995
    18   6 C        3.197     0.074    25.826     8.284
    19   6 C        3.095     0.043    26.917     8.503
    20   7 N        2.816    -0.079    22.763     7.086
    21   6 C        3.745     0.001    20.628     6.479
    22   6 C        2.971    -0.007    28.190     8.709
    23   6 C        2.927    -0.042    29.039     8.837
    24   6 C        2.916    -0.053    29.321     8.880
    25   6 C        2.788     0.163    24.460     8.101
    26   9 F        0.787    -0.231    11.555     4.015
    27   6 C        2.916    -0.054    29.349     8.884
    28   6 C        2.929    -0.039    28.978     8.828
    29   6 C        2.908    -0.061    29.515     8.908
    30   6 C        2.927    -0.031    28.778     8.797
    31   6 C        2.923    -0.036    28.895     8.815
    32   6 C        2.911    -0.051    29.268     8.871
    33   1 H        0.924     0.059     2.209     2.324
    34   1 H        0.924     0.059     2.213     2.326
    35   1 H        0.925     0.070     2.084     2.258
    36   1 H        0.925     0.032     2.561     2.503
    37   1 H        0.926     0.054     2.272     2.357
    38   1 H        0.860     0.181     1.209     1.723
    39   1 H        0.924     0.093     1.847     2.125
    40   1 H        0.925     0.056     2.247     2.344
    41   1 H        0.924     0.052     2.297     2.370
    42   1 H        0.925     0.069     2.093     2.263
    43   1 H        0.923     0.051     2.305     2.374
    44   1 H        0.924     0.049     2.333     2.389
    45   1 H        0.924     0.053     2.277     2.360
    46   1 H        0.923     0.045     2.388     2.417
    47   1 H        0.924     0.050     2.318     2.381
    48   1 H        0.924     0.056     2.248     2.345
    49   1 H        0.924     0.050     2.319     2.382
    50   1 H        0.926     0.035     2.518     2.481
    51   1 H        0.926     0.054     2.269     2.356
    52   1 H        0.926     0.052     2.291     2.367
    53   1 H        0.926     0.035     2.513     2.479
    54   1 H        0.926     0.027     2.627     2.535
    55   1 H        0.926     0.035     2.519     2.482
    56   1 H        0.926     0.035     2.512     2.478
    57   1 H        0.926     0.044     2.400     2.422

 Mol. C6AA /au·bohr⁶  :      38620.125231
 Mol. C8AA /au·bohr⁸  :     915355.371164
 Mol. α(0) /au        :        305.404773


Wiberg/Mayer (AO) data.
largest (>0.10) Wiberg bond orders for each atom

 ---------------------------------------------------------------------------
     #   Z sym  total        # sym  WBO       # sym  WBO       # sym  WBO
 ---------------------------------------------------------------------------
     1   6 C    3.969 --     2 N    1.006    35 H    0.974    34 H    0.970
                            33 H    0.969
     2   7 N    3.402 --     3 C    1.195     1 C    1.006    10 C    0.977
     3   6 C    3.859 --     4 N    1.370     2 N    1.195     8 N    1.154
     4   7 N    2.939 --     3 C    1.370     5 C    1.321
     5   6 C    3.732 --     4 N    1.321     6 C    1.318    36 H    0.964
     6   6 C    3.661 --     5 C    1.318     7 C    1.197    37 H    0.967
     7   6 C    3.897 --     9 O    1.612     6 C    1.197     8 N    1.020
     8   7 N    3.390 --     3 C    1.154     7 C    1.020    38 H    0.927
                             9 O    0.103
     9   8 O    1.891 --     7 C    1.612     8 N    0.103
    10   6 C    3.959 --    13 C    0.985    11 C    0.984     2 N    0.977
                            39 H    0.945
    11   6 C    3.981 --    12 C    0.999    10 C    0.984    40 H    0.974
                            41 H    0.972
    12   6 C    3.967 --    11 C    0.999    15 N    0.989    42 H    0.969
                            43 H    0.959
    13   6 C    3.986 --    14 C    1.002    10 C    0.985    45 H    0.974
                            44 H    0.971
    14   6 C    3.963 --    13 C    1.002    15 N    0.976    47 H    0.969
                            46 H    0.958
    15   7 N    3.234 --    16 C    1.113    12 C    0.989    14 C    0.976
    16   6 C    3.804 --    17 N    1.412    20 N    1.132    15 N    1.113
    17   7 N    2.929 --    16 C    1.412    18 C    1.250
    18   6 C    3.890 --    32 C    1.272    17 N    1.250    19 C    1.208
    19   6 C    3.901 --    29 C    1.371    18 C    1.208    20 N    1.137
    20   7 N    3.526 --    19 C    1.137    16 C    1.132    21 C    0.980
    21   6 C    3.970 --    22 C    0.991    20 N    0.980    49 H    0.966
                            48 H    0.957
    22   6 C    3.955 --    23 C    1.401    28 C    1.396    21 C    0.991
    23   6 C    3.951 --    24 C    1.427    22 C    1.401    50 H    0.969
    24   6 C    3.958 --    23 C    1.427    25 C    1.392    51 H    0.968
                            28 C    0.101
    25   6 C    3.851 --    24 C    1.392    27 C    1.378    26 F    0.955
    26   9 F    1.080 --    25 C    0.955
    27   6 C    3.956 --    28 C    1.440    25 C    1.378    52 H    0.968
    28   6 C    3.958 --    27 C    1.440    22 C    1.396    53 H    0.969
                            24 C    0.101
    29   6 C    3.913 --    30 C    1.400    19 C    1.371    54 H    0.967
    30   6 C    3.853 --    29 C    1.400    31 C    1.372    55 H    0.971
    31   6 C    3.960 --    32 C    1.488    30 C    1.372    56 H    0.971
    32   6 C    3.877 --    31 C    1.488    18 C    1.272    57 H    0.968
    33   1 H    0.991 --     1 C    0.969
    34   1 H    0.991 --     1 C    0.970
    35   1 H    0.995 --     1 C    0.974
    36   1 H    0.998 --     5 C    0.964
    37   1 H    0.997 --     6 C    0.967
    38   1 H    0.967 --     8 N    0.927
    39   1 H    0.991 --    10 C    0.945
    40   1 H    0.996 --    11 C    0.974
    41   1 H    0.997 --    11 C    0.972
    42   1 H    0.994 --    12 C    0.969
    43   1 H    0.988 --    12 C    0.959
    44   1 H    0.997 --    13 C    0.971
    45   1 H    0.996 --    13 C    0.974
    46   1 H    0.987 --    14 C    0.958
    47   1 H    0.996 --    14 C    0.969
    48   1 H    0.995 --    21 C    0.957
    49   1 H    0.996 --    21 C    0.966
    50   1 H    0.999 --    23 C    0.969
    51   1 H    0.997 --    24 C    0.968
    52   1 H    0.997 --    27 C    0.968
    53   1 H    0.999 --    28 C    0.969
    54   1 H    0.999 --    29 C    0.967
    55   1 H    0.998 --    30 C    0.971
    56   1 H    0.998 --    31 C    0.971
    57   1 H    0.997 --    32 C    0.968
 ---------------------------------------------------------------------------

Topologies differ in total number of bonds
Writing topology from bond orders to xtbtopo.mol

molecular dipole:
                 x           y           z       tot (Debye)
 q only:       -1.274      -0.276      -0.847
   full:       -1.339       0.070      -1.097       4.403
molecular quadrupole (traceless):
                xx          xy          yy          xz          yz          zz
 q only:      -58.481      -9.327      22.438      18.340      -4.736      36.043
  q+dip:      -54.691     -10.135      18.508      22.393      -4.985      36.183
   full:      -56.559      -8.448      18.606      20.996      -4.193      37.952


           -------------------------------------------------
          | TOTAL ENERGY              -90.447141664148 Eh   |
          | GRADIENT NORM               0.100760540416 Eh/α |
          | HOMO-LUMO GAP               0.026837614385 eV   |
           -------------------------------------------------

------------------------------------------------------------------------
 * finished run on 2025/05/15 at 16:15:04.630     
------------------------------------------------------------------------
 total:
 * wall-time:     0 d,  0 h,  0 min,  0.188 sec
 *  cpu-time:     0 d,  0 h,  0 min,  0.182 sec
 * ratio c/w:     0.965 speedup
 SCF:
 * wall-time:     0 d,  0 h,  0 min,  0.170 sec
 *  cpu-time:     0 d,  0 h,  0 min,  0.165 sec
 * ratio c/w:     0.971 speedup


