57
 energy: -90.579179307983 gnorm: 0.000729073144 xtb: 6.7.1 (edcfbbe)
C            3.67531850328756        1.36354316221184       -1.94748807582368
N            3.63445696581430        0.76697828669430       -0.63237632019490
C            4.70641235011760        0.82057627988315        0.19012004711836
N            4.63982202638700        0.26229289889821        1.37489800814560
C            5.72837347401950        0.34196621250230        2.16363754577899
C            6.88846511932965        0.95974918015471        1.82209578625696
C            7.00247618666831        1.58393034019982        0.53655163958841
N            5.82890944341259        1.45977265682551       -0.23321093286439
O            7.95061602039296        2.17618142734162        0.06231590634495
C            2.45430438739412        0.03297525675812       -0.20587817152056
C            1.20957206630890        0.92117991907228       -0.12704560680489
C            0.03594641254175        0.08475281464956        0.37658558004793
C            2.16739347296077       -1.17844841272545       -1.09721175629982
C            0.95266642794885       -1.92800587450027       -0.55742496834291
N           -0.18618724956270       -1.02435374116208       -0.53888589118422
C           -1.41162887863401       -1.64914945445402       -0.52669036141300
N           -1.59417065827463       -2.92247047121431       -0.31288894405090
C           -2.93833082181370       -3.14059344951159       -0.48502381503921
C           -3.57249326960041       -1.92365184006551       -0.82185401285888
N           -2.56932087140691       -0.97658954333066       -0.85379708165650
C           -2.70159510334305        0.36835572341170       -1.33785760980974
C           -3.04987825527562        1.38258477053896       -0.27079926296643
C           -3.72015385015386        1.00755523246925        0.88704066359896
C           -4.05174933235918        1.94863148237720        1.84539447405994
C           -3.70995861160861        3.27039165126235        1.62822882188353
F           -4.03020479066707        4.19349036333958        2.55671107271293
C           -3.04549778112217        3.67275232298632        0.48337391091080
C           -2.71753625398635        2.71945851202768       -0.46205211576754
C           -4.93535568792019       -1.84581005112602       -1.04388021422209
C           -5.65866139777800       -3.01883112298372       -0.92695020483770
C           -5.04262164854100       -4.22427731413096       -0.59512254691379
C           -3.68265666591290       -4.30664456892058       -0.37021889953440
H            2.71293350813117        1.21981283330588       -2.42848668563975
H            4.44088442488290        0.89795026265525       -2.57726282964120
H            3.86476315955891        2.43968523103084       -1.88743759915685
H            5.60770367580407       -0.13978883324082        3.12482493475299
H            7.73690902485346        1.00045667670812        2.48285585428646
H            5.87904898816645        1.88591276703646       -1.14902850543518
H            2.69427855182672       -0.32074724742611        0.80122416643382
H            0.96010629617436        1.32543088076683       -1.10959855612731
H            1.38773052930377        1.75311780031073        0.55486765942554
H            0.26948966164885       -0.29548604265914        1.38334148292206
H           -0.86323199686587        0.69612916072528        0.44962377998317
H            1.95906002280054       -0.86173936075814       -2.12037741463435
H            3.03220980706586       -1.84193331981321       -1.10874827782644
H            1.16441800192566       -2.31391494525592        0.44886349016703
H            0.69958888350444       -2.77393291415754       -1.19637207977426
H           -3.49481592328466        0.37211070702582       -2.09668786350692
H           -1.76514057206549        0.65094186740592       -1.82997304757117
H           -3.98299509565609       -0.02717597123638        1.04631760777237
H           -4.57003796518544        1.66872937618085        2.74843589981061
H           -2.79355543415512        4.71208202350047        0.34536174854969
H           -2.19768753644194        3.01757240043313       -1.36080708961921
H           -5.41964646547540       -0.91242443159739       -1.29298537529571
H           -6.72531754184617       -2.99971919538342       -1.09429588191438
H           -5.64904243843863       -5.11412869176274       -0.51203142803926
H           -3.20438529487601       -5.23733368326836       -0.11142065420813
