26
 energy: -46.983769999680 gnorm: 0.000800919925 xtb: 6.7.1 (edcfbbe)
N            4.48927587645630        1.35483569330197       -0.56253762859343
C            3.20451963741510        1.06549476956829       -0.29832369572714
N            2.52704574131782        1.94234430805522        0.40384839371505
C            1.24420944699776        1.76035126408426        0.73464834351116
N            0.62127977129251        0.54999307016888        0.24580472258817
C           -0.76365752605404        0.33939306191105        0.55674955540879
C           -0.95721230593932       -0.63019649184833        1.73628004011042
S           -2.61778912488960       -1.32227183403818        1.48706419889036
C           -2.72158114496754       -0.55660042581162       -0.19791952197521
O           -1.42096274762572       -0.21739913837841       -0.55631787714931
C           -3.29446567931666       -1.53328772425671       -1.22021468357412
O           -3.49561517153920       -0.92108724256187       -2.46138112826085
C            1.31910561078988       -0.35801052354598       -0.46471950378932
C            2.62316363700501       -0.15335747764282       -0.76569030532075
O            0.57864858815293        2.51270144777102        1.40386619680017
H            5.06341330868641        0.74336625446865       -1.11229673870652
H            4.85163896535780        2.23118906116437       -0.23185326872482
H           -1.18853043263297        1.32321484038800        0.81501609653078
H           -0.90314236795631       -0.11808109523874        2.69305332173618
H           -0.22699827396341       -1.44040013607626        1.70007514582222
H           -3.35644814496846        0.33627284825607       -0.10709492372865
H           -4.26985902829064       -1.88439981732977       -0.87875837176085
H           -2.61249576627026       -2.39142702426807       -1.30089730867662
H           -2.66065717874389       -0.53212014724063       -2.74829288340468
H            0.77453688977716       -1.23448912157765       -0.78770072516331
H            3.19247741990871       -0.86622841932209       -1.33610745055788
