----- Optimization -----
      -----------------------------------------------------------      
     |                   =====================                   |     
     |                           x T B                           |     
     |                   =====================                   |     
     |                         S. Grimme                         |     
     |          Mulliken Center for Theoretical Chemistry        |     
     |                    University of Bonn                     |     
      -----------------------------------------------------------      

   * xtb version 6.7.1 (edcfbbe) compiled by 'conda@3ef47c1a292c' on 2024-11-25

   xtb is free software: you can redistribute it and/or modify it under
   the terms of the GNU Lesser General Public License as published by
   the Free Software Foundation, either version 3 of the License, or
   (at your option) any later version.
   
   xtb is distributed in the hope that it will be useful,
   but WITHOUT ANY WARRANTY; without even the implied warranty of
   MERCHANTABILITY or FITNESS FOR A PARTICULAR PURPOSE.  See the
   GNU Lesser General Public License for more details.
   
   Cite this work as:
   * C. Bannwarth, E. Caldeweyher, S. Ehlert, A. Hansen, P. Pracht,
     J. Seibert, S. Spicher, S. Grimme, WIREs Comput. Mol. Sci., 2020, 11,
     e01493. DOI: 10.1002/wcms.1493
   
   for GFN2-xTB:
   * C. Bannwarth, S. Ehlert and S. Grimme., J. Chem. Theory Comput., 2019,
     15, 1652-1671. DOI: 10.1021/acs.jctc.8b01176
   for GFN1-xTB:
   * S. Grimme, C. Bannwarth, P. Shushkov, J. Chem. Theory Comput., 2017,
     13, 1989-2009. DOI: 10.1021/acs.jctc.7b00118
   for GFN0-xTB:
   * P. Pracht, E. Caldeweyher, S. Ehlert, S. Grimme, ChemRxiv, 2019, preprint.
     DOI: 10.26434/chemrxiv.8326202.v1
   for GFN-FF:
   * S. Spicher and S. Grimme, Angew. Chem. Int. Ed., 2020, 59, 15665-15673.
     DOI: 10.1002/anie.202004239
   
   for ALPB and GBSA implicit solvation:
   * S. Ehlert, M. Stahn, S. Spicher, S. Grimme, J. Chem. Theory Comput.,
     2021, 17, 4250-4261. DOI: 10.1021/acs.jctc.1c00471
   
   for ddCOSMO and CPCM-X implicit solvation:
   * M. Stahn, S. Ehlert, S. Grimme, J. Phys. Chem. A,
     2023, XX, XXXX-XXXX. DOI: 10.1021/acs.jpca.3c04382
   
   for DFT-D4:
   * E. Caldeweyher, C. Bannwarth and S. Grimme, J. Chem. Phys., 2017,
     147, 034112. DOI: 10.1063/1.4993215
   * E. Caldeweyher, S. Ehlert, A. Hansen, H. Neugebauer, S. Spicher,
     C. Bannwarth and S. Grimme, J. Chem. Phys., 2019, 150, 154122.
     DOI: 10.1063/1.5090222
   * E. Caldeweyher, J.-M. Mewes, S. Ehlert and S. Grimme, Phys. Chem. Chem. Phys.
     2020, 22, 8499-8512. DOI: 10.1039/D0CP00502A
   
   for sTDA-xTB:
   * S. Grimme and C. Bannwarth, J. Chem. Phys., 2016, 145, 054103.
     DOI: 10.1063/1.4959605
   
   in the mass-spec context:
   * V. Asgeirsson, C. Bauer and S. Grimme, Chem. Sci., 2017, 8, 4879.
     DOI: 10.1039/c7sc00601b
   * J. Koopman and S. Grimme, ACS Omega 2019, 4, 12, 15120-15133.
     DOI: 10.1021/acsomega.9b02011
   
   for metadynamics refer to:
   * S. Grimme, J. Chem. Theory Comput., 2019, 155, 2847-2862
     DOI: 10.1021/acs.jctc.9b00143
   
   for SPH calculations refer to:
   * S. Spicher and S. Grimme, J. Chem. Theory Comput., 2021, 17, 1701-1714
     DOI: 10.1021/acs.jctc.0c01306
   
   for ONIOM refer to:
   * C. Plett, A. Katbashev, S. Ehlert, S. Grimme, M. Bursch,
     Phys. Chem. Chem. Phys., 2023, 25, 17860-17868. DOI: 10.1039/D3CP02178E
   
   for DIPRO refer to:
   * J. Kohn, N. Gildemeister, S. Grimme, D. Fazzi, A. Hansen,
     J. Chem. Phys., 2023, just accepted.
   
   for PTB refer to:
   * S. Grimme, M. Mueller, A. Hansen, J. Chem. Phys., 2023, 158, 124111.
     DOI: 10.1063/5.0137838
   
   with help from (in alphabetical order)
   P. Atkinson, C. Bannwarth, F. Bohle, G. Brandenburg, E. Caldeweyher
   M. Checinski, S. Dohm, S. Ehlert, S. Ehrlich, I. Gerasimov, C. Hölzer
   A. Katbashev, J. Kohn, J. Koopman, C. Lavigne, S. Lehtola, F. März, M. Müller,
   F. Musil, H. Neugebauer, J. Pisarek, C. Plett, P. Pracht, F. Pultar,
   J. Seibert, P. Shushkov, S. Spicher, M. Stahn, M. Steiner, T. Strunk,
   J. Stückrath, T. Rose, and J. Unsleber
   
 * started run on 2025/05/15 at 16:12:44.081     
   ID    Z sym.   atoms
    1    7 N      1, 3, 5
    2    6 C      2, 4, 6, 7, 9, 11, 13, 14
    3   16 S      8
    4    8 O      10, 12, 15
    5    1 H      16-26

           -------------------------------------------------
          |                Calculation Setup                |
           -------------------------------------------------

          program call               : xtb /rds/general/user/hgt20/home/callum/QDESCP/Lamivudine_rdkit_conf_4/Lamivudine_rdkit_conf_4.xyz --opt normal --acc 1 --gfn 2 --chrg 0 --uhf 0 -P 1
          hostname                   : login-c
          coordinate file            : /rds/general/user/hgt20/home/callum/QDESCP/Lamivudine_rdkit_conf_4/Lamivudine_rdkit_conf_4.xyz
          omp threads                :                     1


           -------------------------------------------------
          |                 G F N 2 - x T B                 |
           -------------------------------------------------

        Reference                      10.1021/acs.jctc.8b01176
      * Hamiltonian:
        H0-scaling (s, p, d)           1.850000    2.230000    2.230000
        zeta-weighting                 0.500000
      * Dispersion:
        s8                             2.700000
        a1                             0.520000
        a2                             5.000000
        s9                             5.000000
      * Repulsion:
        kExp                           1.500000    1.000000
        rExp                           1.000000
      * Coulomb:
        alpha                          2.000000
        third order                    shell-resolved
        anisotropic                    true
        a3                             3.000000
        a5                             4.000000
        cn-shift                       1.200000
        cn-exp                         4.000000
        max-rad                        5.000000


          ...................................................
          :                      SETUP                      :
          :.................................................:
          :  # basis functions                  77          :
          :  # atomic orbitals                  76          :
          :  # shells                           42          :
          :  # electrons                        82          :
          :  max. iterations                   250          :
          :  Hamiltonian                  GFN2-xTB          :
          :  restarted?                      false          :
          :  GBSA solvation                  false          :
          :  PC potential                    false          :
          :  electronic temp.          300.0000000     K    :
          :  accuracy                    1.0000000          :
          :  -> integral cutoff          0.2500000E+02      :
          :  -> integral neglect         0.1000000E-07      :
          :  -> SCF convergence          0.1000000E-05 Eh   :
          :  -> wf. convergence          0.1000000E-03 e    :
          :  Broyden damping             0.4000000          :
          :  net charge                          0          :
          :  unpaired electrons                  0          :
          ...................................................

 iter      E             dE          RMSdq      gap      omega  full diag
   1    -47.3211386 -0.473211E+02  0.501E+00    3.45       0.0  T
   2    -47.4227679 -0.101629E+00  0.289E+00    3.20       1.0  T
   3    -47.4195075  0.326044E-02  0.136E+00    2.97       1.0  T
   4    -47.4306948 -0.111873E-01  0.549E-01    2.80       1.0  T
   5    -47.4356858 -0.499100E-02  0.163E-01    2.82       1.0  T
   6    -47.4357782 -0.923517E-04  0.631E-02    2.83       1.0  T
   7    -47.4357945 -0.163114E-04  0.205E-02    2.84       1.0  T
   8    -47.4357962 -0.169579E-05  0.973E-03    2.84       2.0  T
   9    -47.4357963 -0.105229E-06  0.379E-03    2.84       5.2  T
  10    -47.4357963 -0.343937E-07  0.146E-03    2.84      13.4  T
  11    -47.4357964 -0.999971E-08  0.618E-04    2.84      31.7  T
  12    -47.4357964 -0.108413E-08  0.288E-04    2.84      68.0  T

   *** convergence criteria satisfied after 12 iterations ***

         #    Occupation            Energy/Eh            Energy/eV
      -------------------------------------------------------------
         1        2.0000           -0.7496637             -20.3994
       ...           ...                  ...                  ...
        35        2.0000           -0.4524677             -12.3123
        36        2.0000           -0.4337721             -11.8035
        37        2.0000           -0.4246161             -11.5544
        38        2.0000           -0.4127109             -11.2304
        39        2.0000           -0.4090785             -11.1316
        40        2.0000           -0.3943686             -10.7313
        41        2.0000           -0.3816584             -10.3855 (HOMO)
        42                         -0.2772102              -7.5433 (LUMO)
        43                         -0.2373410              -6.4584
        44                         -0.2349377              -6.3930
        45                         -0.1589937              -4.3264
        46                         -0.1417854              -3.8582
       ...                                ...                  ...
        76                          0.6368487              17.3295
      -------------------------------------------------------------
                  HL-Gap            0.1044481 Eh            2.8422 eV
             Fermi-level           -0.3294343 Eh           -8.9644 eV

 SCC (total)                   0 d,  0 h,  0 min,  0.030 sec
 SCC setup                      ...        0 min,  0.000 sec (  0.722%)
 Dispersion                     ...        0 min,  0.000 sec (  0.620%)
 classical contributions        ...        0 min,  0.000 sec (  0.212%)
 integral evaluation            ...        0 min,  0.004 sec ( 14.391%)
 iterations                     ...        0 min,  0.013 sec ( 45.155%)
 molecular gradient             ...        0 min,  0.011 sec ( 38.534%)
 printout                       ...        0 min,  0.000 sec (  0.341%)

         :::::::::::::::::::::::::::::::::::::::::::::::::::::
         ::                     SUMMARY                     ::
         :::::::::::::::::::::::::::::::::::::::::::::::::::::
         :: total energy             -46.971455353847 Eh    ::
         :: gradient norm              0.093409817633 Eh/a0 ::
         :: HOMO-LUMO gap              2.842178050924 eV    ::
         ::.................................................::
         :: SCC energy               -47.435752303491 Eh    ::
         :: -> isotropic ES            0.105936700221 Eh    ::
         :: -> anisotropic ES          0.001312385101 Eh    ::
         :: -> anisotropic XC          0.015430331130 Eh    ::
         :: -> dispersion             -0.025410261758 Eh    ::
         :: repulsion energy           0.464296949644 Eh    ::
         :: add. restraining           0.000000000000 Eh    ::
         :: total charge               0.000000000000 e     ::
         :::::::::::::::::::::::::::::::::::::::::::::::::::::

      ----------------------------------------------------------- 
     |                   =====================                   |
     |                        A N C O P T                        |
     |                   =====================                   |
     |               Approximate Normal Coordinate               |
     |                Rational Function Optimizer                |
      ----------------------------------------------------------- 
      ----------------------------------------------------------- 
     |                   =====================                   |
     |                        A N C O P T                        |
     |                   =====================                   |
     |               Approximate Normal Coordinate               |
     |                Rational Function Optimizer                |
      ----------------------------------------------------------- 

          ...................................................
          :                      SETUP                      :
          :.................................................:
          :   optimization level            normal          :
          :   max. optcycles                   200          :
          :   ANC micro-cycles                  20          :
          :   degrees of freedom                72          :
          :.................................................:
          :   RF solver                   davidson          :
          :   write xtbopt.log                true          :
          :   linear?                        false          :
          :   energy convergence         0.5000000E-05 Eh   :
          :   grad. convergence          0.1000000E-02 Eh/α :
          :   maxmium RF displ.          1.0000000          :
          :   Hlow (freq-cutoff)         0.1000000E-01      :
          :   Hmax (freq-cutoff)         5.0000000          :
          :   S6 in model hess.         20.0000000          :
          ...................................................

generating ANC from exact Hessian ...
Using Lindh-Hessian (1995)
 Shifting diagonal of input Hessian by    8.7208771163908710E-003
 Lowest  eigenvalues of input Hessian
    0.000000    0.000000    0.000000    0.000000    0.000000    0.000000
    0.010000    0.010171    0.010828    0.013223    0.014639    0.017601
    0.019110    0.023810    0.028246    0.028769    0.029578    0.034733
 Highest eigenvalues
    1.662529    1.834417    1.971147    2.047203    2.140595    2.394385


........................................................................
.............................. CYCLE    1 ..............................
........................................................................

 iter      E             dE          RMSdq      gap      omega  full diag
   1    -47.4357964 -0.474358E+02  0.822E-05    2.84       0.0  T
   2    -47.4357964 -0.166196E-10  0.506E-05    2.84     387.7  T
   3    -47.4357964 -0.227374E-12  0.292E-05    2.84     672.5  T
     SCC iter.                  ...        0 min,  0.054 sec
     gradient                   ...        0 min,  0.011 sec
 * total energy  :   -46.9714554 Eh     change       -0.2925091E-09 Eh
   gradient norm :     0.0934102 Eh/α   predicted     0.0000000E+00 (-100.00%)
   displ. norm   :     0.2312562 α      lambda       -0.1004576E-01
   maximum displ.:     0.0753142 α      in ANC's #19, #13, #11, ...

........................................................................
.............................. CYCLE    2 ..............................
........................................................................

 iter      E             dE          RMSdq      gap      omega  full diag
   1    -47.4553322 -0.474553E+02  0.202E-01    2.85       0.0  T
   2    -47.4554809 -0.148668E-03  0.118E-01    2.85       1.0  T
   3    -47.4554804  0.507296E-06  0.708E-02    2.85       1.0  T
   4    -47.4555155 -0.351296E-04  0.204E-02    2.84       1.0  T
   5    -47.4555229 -0.739374E-05  0.509E-03    2.84       3.9  T
   6    -47.4555231 -0.208369E-06  0.241E-03    2.84       8.1  T
   7    -47.4555231 -0.166023E-07  0.997E-04    2.84      19.7  T
   8    -47.4555231 -0.405095E-08  0.316E-04    2.84      62.0  T
     SCC iter.                  ...        0 min,  0.008 sec
     gradient                   ...        0 min,  0.011 sec
 * total energy  :   -46.9786442 Eh     change       -0.7188805E-02 Eh
   gradient norm :     0.0523508 Eh/α   predicted    -0.5292878E-02 ( -26.37%)
   displ. norm   :     0.2247355 α      lambda       -0.5386569E-02
   maximum displ.:     0.1088567 α      in ANC's #11, #13, #9, ...

........................................................................
.............................. CYCLE    3 ..............................
........................................................................

 iter      E             dE          RMSdq      gap      omega  full diag
   1    -47.4696325 -0.474696E+02  0.201E-01    2.84       0.0  T
   2    -47.4697884 -0.155883E-03  0.110E-01    2.82       1.0  T
   3    -47.4697967 -0.827386E-05  0.694E-02    2.82       1.0  T
   4    -47.4698222 -0.255772E-04  0.208E-02    2.81       1.0  T
   5    -47.4698291 -0.688074E-05  0.591E-03    2.81       3.3  T
   6    -47.4698296 -0.445989E-06  0.234E-03    2.82       8.4  T
   7    -47.4698296 -0.216331E-07  0.107E-03    2.82      18.2  T
   8    -47.4698296 -0.478200E-08  0.331E-04    2.82      59.3  T
   9    -47.4698296 -0.187256E-09  0.157E-04    2.82     125.2  T
     SCC iter.                  ...        0 min,  0.009 sec
     gradient                   ...        0 min,  0.059 sec
 * total energy  :   -46.9817051 Eh     change       -0.3060964E-02 Eh
   gradient norm :     0.0211514 Eh/α   predicted    -0.2830824E-02 (  -7.52%)
   displ. norm   :     0.1286252 α      lambda       -0.9414622E-03
   maximum displ.:     0.0587654 α      in ANC's #6, #11, #7, ...

........................................................................
.............................. CYCLE    4 ..............................
........................................................................

 iter      E             dE          RMSdq      gap      omega  full diag
   1    -47.4697412 -0.474697E+02  0.911E-02    2.82       0.0  T
   2    -47.4697657 -0.244359E-04  0.497E-02    2.81       1.0  T
   3    -47.4697664 -0.711738E-06  0.221E-02    2.81       1.0  T
   4    -47.4697684 -0.198594E-05  0.590E-03    2.80       3.3  T
   5    -47.4697685 -0.181407E-06  0.235E-03    2.80       8.3  T
   6    -47.4697686 -0.235378E-07  0.874E-04    2.80      22.4  T
   7    -47.4697686 -0.392403E-08  0.442E-04    2.80      44.4  T
     SCC iter.                  ...        0 min,  0.008 sec
     gradient                   ...        0 min,  0.011 sec
 * total energy  :   -46.9823560 Eh     change       -0.6508847E-03 Eh
   gradient norm :     0.0138937 Eh/α   predicted    -0.4785985E-03 ( -26.47%)
   displ. norm   :     0.1493504 α      lambda       -0.6588854E-03
   maximum displ.:     0.0832909 α      in ANC's #6, #11, #7, ...

........................................................................
.............................. CYCLE    5 ..............................
........................................................................

 iter      E             dE          RMSdq      gap      omega  full diag
   1    -47.4688714 -0.474689E+02  0.101E-01    2.81       0.0  T
   2    -47.4689041 -0.326298E-04  0.560E-02    2.80       1.0  T
   3    -47.4689042 -0.138479E-06  0.222E-02    2.80       1.0  T
   4    -47.4689073 -0.313776E-05  0.892E-03    2.79       2.2  T
   5    -47.4689083 -0.983933E-06  0.383E-03    2.79       5.1  T
   6    -47.4689084 -0.108365E-06  0.143E-03    2.79      13.7  T
   7    -47.4689084 -0.182303E-07  0.428E-04    2.79      45.8  T
   8    -47.4689084 -0.464546E-09  0.192E-04    2.79     102.3  T
     SCC iter.                  ...        0 min,  0.008 sec
     gradient                   ...        0 min,  0.062 sec
 * total energy  :   -46.9827796 Eh     change       -0.4235998E-03 Eh
   gradient norm :     0.0098120 Eh/α   predicted    -0.3368544E-03 ( -20.48%)
   displ. norm   :     0.1054108 α      lambda       -0.2414911E-03
   maximum displ.:     0.0555546 α      in ANC's #6, #5, #3, ...

........................................................................
.............................. CYCLE    6 ..............................
........................................................................

 iter      E             dE          RMSdq      gap      omega  full diag
   1    -47.4691070 -0.474691E+02  0.687E-02    2.80       0.0  T
   2    -47.4691186 -0.116028E-04  0.373E-02    2.80       1.0  T
   3    -47.4691180  0.609542E-06  0.136E-02    2.80       1.4  T
   4    -47.4691198 -0.185264E-05  0.629E-03    2.80       3.1  T
   5    -47.4691204 -0.582951E-06  0.257E-03    2.80       7.6  T
   6    -47.4691204 -0.174336E-07  0.677E-04    2.80      29.0  T
   7    -47.4691204 -0.548243E-08  0.240E-04    2.80      81.7  T
     SCC iter.                  ...        0 min,  0.007 sec
     gradient                   ...        0 min,  0.011 sec
 * total energy  :   -46.9829558 Eh     change       -0.1761503E-03 Eh
   gradient norm :     0.0078635 Eh/α   predicted    -0.1220978E-03 ( -30.69%)
   displ. norm   :     0.1263902 α      lambda       -0.2012132E-03
   maximum displ.:     0.0576269 α      in ANC's #3, #5, #6, ...

........................................................................
.............................. CYCLE    7 ..............................
........................................................................

 iter      E             dE          RMSdq      gap      omega  full diag
   1    -47.4699738 -0.474700E+02  0.795E-02    2.81       0.0  T
   2    -47.4699828 -0.902904E-05  0.414E-02    2.81       1.0  T
   3    -47.4699823  0.506275E-06  0.126E-02    2.81       1.6  T
   4    -47.4699839 -0.160194E-05  0.571E-03    2.81       3.4  T
   5    -47.4699842 -0.295876E-06  0.276E-03    2.81       7.1  T
   6    -47.4699842 -0.597546E-07  0.640E-04    2.81      30.6  T
   7    -47.4699842 -0.469063E-08  0.255E-04    2.81      77.0  T
     SCC iter.                  ...        0 min,  0.007 sec
     gradient                   ...        0 min,  0.055 sec
 * total energy  :   -46.9830971 Eh     change       -0.1413408E-03 Eh
   gradient norm :     0.0070064 Eh/α   predicted    -0.1022157E-03 ( -27.68%)
   displ. norm   :     0.1113844 α      lambda       -0.1315208E-03
   maximum displ.:     0.0623157 α      in ANC's #3, #5, #6, ...

........................................................................
.............................. CYCLE    8 ..............................
........................................................................

 iter      E             dE          RMSdq      gap      omega  full diag
   1    -47.4711982 -0.474712E+02  0.703E-02    2.82       0.0  T
   2    -47.4712016 -0.342128E-05  0.360E-02    2.83       1.0  T
   3    -47.4712017 -0.110742E-06  0.850E-03    2.83       2.3  T
   4    -47.4712023 -0.510215E-06  0.402E-03    2.82       4.9  T
   5    -47.4712023 -0.184824E-07  0.155E-03    2.83      12.6  T
   6    -47.4712023 -0.414346E-07  0.483E-04    2.82      40.6  T
   7    -47.4712023 -0.283723E-08  0.215E-04    2.82      91.3  T
     SCC iter.                  ...        0 min,  0.008 sec
     gradient                   ...        0 min,  0.012 sec
 * total energy  :   -46.9831929 Eh     change       -0.9581250E-04 Eh
   gradient norm :     0.0060716 Eh/α   predicted    -0.6657856E-04 ( -30.51%)
   displ. norm   :     0.1434132 α      lambda       -0.1197420E-03
   maximum displ.:     0.0887095 α      in ANC's #3, #5, #2, ...

........................................................................
.............................. CYCLE    9 ..............................
........................................................................

 iter      E             dE          RMSdq      gap      omega  full diag
   1    -47.4717025 -0.474717E+02  0.879E-02    2.84       0.0  T
   2    -47.4717069 -0.440921E-05  0.449E-02    2.84       1.0  T
   3    -47.4717071 -0.231906E-06  0.101E-02    2.84       1.9  T
   4    -47.4717078 -0.697987E-06  0.477E-03    2.84       4.1  T
   5    -47.4717078 -0.220031E-07  0.148E-03    2.84      13.2  T
   6    -47.4717078 -0.318756E-07  0.532E-04    2.84      36.9  T
   7    -47.4717078 -0.411931E-08  0.253E-04    2.84      77.6  T
     SCC iter.                  ...        0 min,  0.008 sec
     gradient                   ...        0 min,  0.011 sec
 * total energy  :   -46.9832756 Eh     change       -0.8270367E-04 Eh
   gradient norm :     0.0069537 Eh/α   predicted    -0.6111044E-04 ( -26.11%)
   displ. norm   :     0.1634618 α      lambda       -0.1452503E-03
   maximum displ.:     0.1065544 α      in ANC's #3, #2, #5, ...

........................................................................
.............................. CYCLE   10 ..............................
........................................................................

 iter      E             dE          RMSdq      gap      omega  full diag
   1    -47.4730829 -0.474731E+02  0.103E-01    2.85       0.0  T
   2    -47.4730894 -0.658854E-05  0.527E-02    2.85       1.0  T
   3    -47.4730900 -0.528377E-06  0.108E-02    2.86       1.8  T
   4    -47.4730905 -0.512614E-06  0.535E-03    2.85       3.7  T
   5    -47.4730905 -0.322059E-07  0.194E-03    2.85      10.1  T
   6    -47.4730906 -0.512795E-07  0.617E-04    2.85      31.8  T
   7    -47.4730906 -0.580393E-08  0.300E-04    2.85      65.3  T
     SCC iter.                  ...        0 min,  0.053 sec
     gradient                   ...        0 min,  0.011 sec
 * total energy  :   -46.9833518 Eh     change       -0.7613602E-04 Eh
   gradient norm :     0.0056332 Eh/α   predicted    -0.7458608E-04 (  -2.04%)
   displ. norm   :     0.1742802 α      lambda       -0.9394592E-04
   maximum displ.:     0.1135012 α      in ANC's #3, #2, #5, ...

........................................................................
.............................. CYCLE   11 ..............................
........................................................................

 iter      E             dE          RMSdq      gap      omega  full diag
   1    -47.4718364 -0.474718E+02  0.108E-01    2.87       0.0  T
   2    -47.4718424 -0.602424E-05  0.550E-02    2.86       1.0  T
   3    -47.4718418  0.603415E-06  0.130E-02    2.86       1.5  T
   4    -47.4718436 -0.180360E-05  0.629E-03    2.86       3.1  T
   5    -47.4718438 -0.168460E-06  0.277E-03    2.86       7.1  T
   6    -47.4718439 -0.979084E-07  0.575E-04    2.86      34.1  T
   7    -47.4718439 -0.302752E-08  0.254E-04    2.86      77.2  T
     SCC iter.                  ...        0 min,  0.008 sec
     gradient                   ...        0 min,  0.011 sec
 * total energy  :   -46.9833950 Eh     change       -0.4323352E-04 Eh
   gradient norm :     0.0061329 Eh/α   predicted    -0.4840159E-04 (  11.95%)
   displ. norm   :     0.0359243 α      lambda       -0.5112419E-04
   maximum displ.:     0.0221136 α      in ANC's #2, #3, #8, ...

........................................................................
.............................. CYCLE   12 ..............................
........................................................................

 iter      E             dE          RMSdq      gap      omega  full diag
   1    -47.4723867 -0.474724E+02  0.202E-02    2.86       0.0  T
   2    -47.4723872 -0.415200E-06  0.114E-02    2.86       1.7  T
   3    -47.4723869  0.287074E-06  0.504E-03    2.86       3.9  T
   4    -47.4723873 -0.386229E-06  0.143E-03    2.86      13.7  T
   5    -47.4723873 -0.224883E-07  0.485E-04    2.86      40.5  T
   6    -47.4723873 -0.222609E-08  0.165E-04    2.86     118.9  T
     SCC iter.                  ...        0 min,  0.006 sec
     gradient                   ...        0 min,  0.057 sec
 * total energy  :   -46.9834310 Eh     change       -0.3601844E-04 Eh
   gradient norm :     0.0029361 Eh/α   predicted    -0.2559777E-04 ( -28.93%)
   displ. norm   :     0.1096106 α      lambda       -0.3936652E-04
   maximum displ.:     0.0743568 α      in ANC's #3, #2, #1, ...

........................................................................
.............................. CYCLE   13 ..............................
........................................................................

 iter      E             dE          RMSdq      gap      omega  full diag
   1    -47.4720969 -0.474721E+02  0.616E-02    2.86       0.0  T
   2    -47.4720983 -0.142535E-05  0.326E-02    2.86       1.0  T
   3    -47.4720968  0.149910E-05  0.104E-02    2.85       1.9  T
   4    -47.4720989 -0.205453E-05  0.383E-03    2.85       5.1  T
   5    -47.4720989 -0.531764E-07  0.112E-03    2.85      17.5  T
   6    -47.4720989 -0.125280E-07  0.248E-04    2.85      79.0  T
   7    -47.4720989 -0.182666E-09  0.116E-04    2.85     169.1  T
     SCC iter.                  ...        0 min,  0.008 sec
     gradient                   ...        0 min,  0.012 sec
 * total energy  :   -46.9834576 Eh     change       -0.2655852E-04 Eh
   gradient norm :     0.0026811 Eh/α   predicted    -0.1992063E-04 ( -24.99%)
   displ. norm   :     0.1027102 α      lambda       -0.2403123E-04
   maximum displ.:     0.0729581 α      in ANC's #3, #2, #1, ...

........................................................................
.............................. CYCLE   14 ..............................
........................................................................

 iter      E             dE          RMSdq      gap      omega  full diag
   1    -47.4720861 -0.474721E+02  0.540E-02    2.85       0.0  T
   2    -47.4720869 -0.765409E-06  0.289E-02    2.85       1.0  T
   3    -47.4720864  0.441488E-06  0.690E-03    2.85       2.8  T
   4    -47.4720871 -0.669604E-06  0.330E-03    2.85       6.0  T
   5    -47.4720872 -0.658098E-07  0.704E-04    2.85      27.8  T
   6    -47.4720872 -0.569060E-08  0.193E-04    2.85     101.7  T
     SCC iter.                  ...        0 min,  0.064 sec
     gradient                   ...        0 min,  0.012 sec
 * total energy  :   -46.9834762 Eh     change       -0.1864564E-04 Eh
   gradient norm :     0.0027754 Eh/α   predicted    -0.1214362E-04 ( -34.87%)
   displ. norm   :     0.1463814 α      lambda       -0.3089887E-04
   maximum displ.:     0.1075563 α      in ANC's #3, #2, #1, ...

........................................................................
.............................. CYCLE   15 ..............................
........................................................................

 iter      E             dE          RMSdq      gap      omega  full diag
   1    -47.4721271 -0.474721E+02  0.743E-02    2.85       0.0  T
   2    -47.4721285 -0.145863E-05  0.400E-02    2.85       1.0  T
   3    -47.4721286 -0.515653E-07  0.716E-03    2.85       2.7  T
   4    -47.4721287 -0.134278E-06  0.415E-03    2.85       4.7  T
   5    -47.4721289 -0.193248E-06  0.109E-03    2.85      18.0  T
   6    -47.4721289 -0.174781E-07  0.263E-04    2.85      74.5  T
   7    -47.4721289 -0.124338E-09  0.127E-04    2.85     155.0  T
     SCC iter.                  ...        0 min,  0.007 sec
     gradient                   ...        0 min,  0.012 sec
 * total energy  :   -46.9834985 Eh     change       -0.2228650E-04 Eh
   gradient norm :     0.0026743 Eh/α   predicted    -0.1578484E-04 ( -29.17%)
   displ. norm   :     0.1337535 α      lambda       -0.2416159E-04
   maximum displ.:     0.0991822 α      in ANC's #3, #2, #1, ...

........................................................................
.............................. CYCLE   16 ..............................
........................................................................

 iter      E             dE          RMSdq      gap      omega  full diag
   1    -47.4723681 -0.474724E+02  0.639E-02    2.85       0.0  T
   2    -47.4723693 -0.117862E-05  0.349E-02    2.85       1.0  T
   3    -47.4723695 -0.199233E-06  0.550E-03    2.85       3.6  T
   4    -47.4723695 -0.337519E-07  0.234E-03    2.85       8.4  T
   5    -47.4723695 -0.144889E-07  0.458E-04    2.85      42.8  T
   6    -47.4723695 -0.151171E-08  0.194E-04    2.85     101.3  T
     SCC iter.                  ...        0 min,  0.006 sec
     gradient                   ...        0 min,  0.062 sec
 * total energy  :   -46.9835162 Eh     change       -0.1765776E-04 Eh
   gradient norm :     0.0024903 Eh/α   predicted    -0.1230318E-04 ( -30.32%)
   displ. norm   :     0.1475359 α      lambda       -0.2377967E-04
   maximum displ.:     0.1099173 α      in ANC's #3, #2, #1, ...

........................................................................
.............................. CYCLE   17 ..............................
........................................................................

 iter      E             dE          RMSdq      gap      omega  full diag
   1    -47.4724225 -0.474724E+02  0.690E-02    2.85       0.0  T
   2    -47.4724239 -0.135806E-05  0.378E-02    2.85       1.0  T
   3    -47.4724241 -0.198878E-06  0.620E-03    2.85       3.2  T
   4    -47.4724241 -0.720094E-07  0.287E-03    2.85       6.8  T
   5    -47.4724242 -0.195182E-07  0.646E-04    2.85      30.4  T
   6    -47.4724242 -0.543775E-08  0.293E-04    2.85      67.0  T
     SCC iter.                  ...        0 min,  0.007 sec
     gradient                   ...        0 min,  0.011 sec
 * total energy  :   -46.9835344 Eh     change       -0.1820879E-04 Eh
   gradient norm :     0.0025503 Eh/α   predicted    -0.1215030E-04 ( -33.27%)
   displ. norm   :     0.1761393 α      lambda       -0.3380705E-04
   maximum displ.:     0.1214160 α      in ANC's #3, #2, #4, ...

........................................................................
.............................. CYCLE   18 ..............................
........................................................................

 iter      E             dE          RMSdq      gap      omega  full diag
   1    -47.4730532 -0.474731E+02  0.758E-02    2.85       0.0  T
   2    -47.4730553 -0.203112E-05  0.423E-02    2.85       1.0  T
   3    -47.4730554 -0.132333E-06  0.730E-03    2.85       2.7  T
   4    -47.4730555 -0.146677E-06  0.333E-03    2.85       5.9  T
   5    -47.4730556 -0.416191E-07  0.117E-03    2.85      16.7  T
   6    -47.4730556 -0.262790E-07  0.407E-04    2.85      48.2  T
   7    -47.4730556 -0.127297E-08  0.210E-04    2.85      93.4  T
     SCC iter.                  ...        0 min,  0.007 sec
     gradient                   ...        0 min,  0.063 sec
 * total energy  :   -46.9835558 Eh     change       -0.2144692E-04 Eh
   gradient norm :     0.0032441 Eh/α   predicted    -0.1743292E-04 ( -18.72%)
   displ. norm   :     0.3330324 α      lambda       -0.4442910E-04
   maximum displ.:     0.2464386 α      in ANC's #3, #2, #1, ...

........................................................................
.............................. CYCLE   19 ..............................
........................................................................

 iter      E             dE          RMSdq      gap      omega  full diag
   1    -47.4704300 -0.474704E+02  0.158E-01    2.85       0.0  T
   2    -47.4704378 -0.777715E-05  0.867E-02    2.85       1.0  T
   3    -47.4704357  0.212481E-05  0.190E-02    2.85       1.0  T
   4    -47.4704392 -0.349666E-05  0.935E-03    2.85       2.1  T
   5    -47.4704399 -0.669460E-06  0.347E-03    2.85       5.6  T
   6    -47.4704400 -0.162787E-06  0.726E-04    2.85      27.0  T
   7    -47.4704400 -0.123285E-08  0.379E-04    2.85      51.8  T
     SCC iter.                  ...        0 min,  0.007 sec
     gradient                   ...        0 min,  0.011 sec
 * total energy  :   -46.9835529 Eh     change        0.2940323E-05 Eh
   gradient norm :     0.0068267 Eh/α   predicted    -0.2468301E-04 (-939.47%)
   displ. norm   :     0.1290084 α      lambda       -0.7060563E-04
   maximum displ.:     0.0966343 α      in ANC's #3, #2, #1, ...

........................................................................
.............................. CYCLE   20 ..............................
........................................................................

 iter      E             dE          RMSdq      gap      omega  full diag
   1    -47.4728857 -0.474729E+02  0.700E-02    2.85       0.0  T
   2    -47.4728875 -0.177484E-05  0.373E-02    2.85       1.0  T
   3    -47.4728868  0.717393E-06  0.918E-03    2.86       2.1  T
   4    -47.4728879 -0.113764E-05  0.433E-03    2.85       4.5  T
   5    -47.4728880 -0.111093E-06  0.156E-03    2.85      12.6  T
   6    -47.4728880 -0.266962E-07  0.284E-04    2.85      69.0  T
   7    -47.4728880 -0.410630E-09  0.152E-04    2.85     129.4  T
     SCC iter.                  ...        0 min,  0.007 sec
     gradient                   ...        0 min,  0.062 sec
 * total energy  :   -46.9835887 Eh     change       -0.3580888E-04 Eh
   gradient norm :     0.0028449 Eh/α   predicted    -0.3589037E-04 (   0.23%)
   displ. norm   :     0.0834934 α      lambda       -0.1626119E-04
   maximum displ.:     0.0483997 α      in ANC's #3, #1, #5, ...
 * RMSD in coord.:     0.3834012 α      energy gain  -0.1213332E-01 Eh

generating ANC from exact Hessian ...
Using Lindh-Hessian (1995)
 Shifting diagonal of input Hessian by    8.7147869171776277E-003
 Lowest  eigenvalues of input Hessian
    0.000000    0.000000    0.000000    0.000000    0.000000    0.000000
    0.010000    0.010268    0.011181    0.013600    0.015044    0.018919
    0.020246    0.025642    0.028944    0.029703    0.030805    0.033900
 Highest eigenvalues
    1.726106    1.945121    2.056282    2.118045    2.216269    2.509697


........................................................................
.............................. CYCLE   21 ..............................
........................................................................

 iter      E             dE          RMSdq      gap      omega  full diag
   1    -47.4728124 -0.474728E+02  0.365E-02    2.85       0.0  T
   2    -47.4728128 -0.420146E-06  0.203E-02    2.85       1.0  T
   3    -47.4728123  0.432808E-06  0.585E-03    2.85       3.4  T
   4    -47.4728129 -0.542512E-06  0.227E-03    2.85       8.6  T
   5    -47.4728129 -0.489425E-07  0.657E-04    2.85      29.8  T
   6    -47.4728129 -0.384679E-08  0.173E-04    2.85     113.6  T
     SCC iter.                  ...        0 min,  0.007 sec
     gradient                   ...        0 min,  0.011 sec
 * total energy  :   -46.9836026 Eh     change       -0.1395860E-04 Eh
   gradient norm :     0.0026381 Eh/α   predicted     0.0000000E+00 (-100.00%)
   displ. norm   :     0.0193054 α      lambda       -0.7775585E-05
   maximum displ.:     0.0156680 α      in ANC's #1, #7, #2, ...

........................................................................
.............................. CYCLE   22 ..............................
........................................................................

 iter      E             dE          RMSdq      gap      omega  full diag
   1    -47.4728289 -0.474728E+02  0.801E-03    2.86       0.0  T
   2    -47.4728290 -0.685685E-07  0.458E-03    2.85       4.3  T
   3    -47.4728290  0.228230E-07  0.163E-03    2.85      12.0  T
   4    -47.4728290 -0.325174E-07  0.528E-04    2.85      37.2  T
   5    -47.4728290 -0.424541E-08  0.236E-04    2.85      83.2  T
     SCC iter.                  ...        0 min,  0.006 sec
     gradient                   ...        0 min,  0.011 sec
 * total energy  :   -46.9836118 Eh     change       -0.9155171E-05 Eh
   gradient norm :     0.0016293 Eh/α   predicted    -0.5440668E-05 ( -40.57%)
   displ. norm   :     0.0811904 α      lambda       -0.1964399E-04
   maximum displ.:     0.0635640 α      in ANC's #1, #7, #2, ...

........................................................................
.............................. CYCLE   23 ..............................
........................................................................

 iter      E             dE          RMSdq      gap      omega  full diag
   1    -47.4727258 -0.474727E+02  0.346E-02    2.86       0.0  T
   2    -47.4727266 -0.875927E-06  0.197E-02    2.85       1.0  T
   3    -47.4727262  0.431296E-06  0.636E-03    2.85       3.1  T
   4    -47.4727268 -0.565911E-06  0.207E-03    2.85       9.5  T
   5    -47.4727268 -0.625130E-07  0.844E-04    2.85      23.2  T
   6    -47.4727268 -0.379638E-08  0.277E-04    2.85      70.8  T
     SCC iter.                  ...        0 min,  0.007 sec
     gradient                   ...        0 min,  0.011 sec
 * total energy  :   -46.9836273 Eh     change       -0.1555848E-04 Eh
   gradient norm :     0.0019561 Eh/α   predicted    -0.9851310E-05 ( -36.68%)
   displ. norm   :     0.0369443 α      lambda       -0.5568616E-05
   maximum displ.:     0.0292896 α      in ANC's #1, #2, #4, ...

........................................................................
.............................. CYCLE   24 ..............................
........................................................................

 iter      E             dE          RMSdq      gap      omega  full diag
   1    -47.4727225 -0.474727E+02  0.143E-02    2.85       0.0  T
   2    -47.4727225 -0.455808E-07  0.812E-03    2.85       2.4  T
   3    -47.4727225  0.631560E-08  0.139E-03    2.85      14.1  T
   4    -47.4727225 -0.178026E-07  0.628E-04    2.85      31.2  T
   5    -47.4727225 -0.231316E-08  0.261E-04    2.85      75.1  T
     SCC iter.                  ...        0 min,  0.005 sec
     gradient                   ...        0 min,  0.011 sec
 * total energy  :   -46.9836345 Eh     change       -0.7167417E-05 Eh
   gradient norm :     0.0013888 Eh/α   predicted    -0.2787070E-05 ( -61.11%)
   displ. norm   :     0.0700516 α      lambda       -0.1012732E-04
   maximum displ.:     0.0507547 α      in ANC's #1, #2, #4, ...

........................................................................
.............................. CYCLE   25 ..............................
........................................................................

 iter      E             dE          RMSdq      gap      omega  full diag
   1    -47.4727434 -0.474727E+02  0.291E-02    2.86       0.0  T
   2    -47.4727436 -0.250221E-06  0.166E-02    2.86       1.2  T
   3    -47.4727436 -0.494855E-08  0.275E-03    2.85       7.1  T
   4    -47.4727437 -0.479490E-07  0.115E-03    2.86      17.1  T
   5    -47.4727437 -0.216740E-08  0.376E-04    2.86      52.2  T
   6    -47.4727437 -0.202467E-08  0.150E-04    2.86     130.5  T
     SCC iter.                  ...        0 min,  0.007 sec
     gradient                   ...        0 min,  0.049 sec
 * total energy  :   -46.9836462 Eh     change       -0.1163855E-04 Eh
   gradient norm :     0.0011873 Eh/α   predicted    -0.5078195E-05 ( -56.37%)
   displ. norm   :     0.0982758 α      lambda       -0.1001419E-04
   maximum displ.:     0.0681923 α      in ANC's #1, #2, #4, ...

........................................................................
.............................. CYCLE   26 ..............................
........................................................................

 iter      E             dE          RMSdq      gap      omega  full diag
   1    -47.4727008 -0.474727E+02  0.394E-02    2.86       0.0  T
   2    -47.4727012 -0.456748E-06  0.223E-02    2.86       1.0  T
   3    -47.4727012  0.266458E-07  0.372E-03    2.86       5.3  T
   4    -47.4727013 -0.933995E-07  0.184E-03    2.86      10.6  T
   5    -47.4727013 -0.273471E-07  0.734E-04    2.86      26.7  T
   6    -47.4727013 -0.862037E-08  0.188E-04    2.86     104.1  T
     SCC iter.                  ...        0 min,  0.007 sec
     gradient                   ...        0 min,  0.011 sec
 * total energy  :   -46.9836586 Eh     change       -0.1245975E-04 Eh
   gradient norm :     0.0018683 Eh/α   predicted    -0.5035696E-05 ( -59.58%)
   displ. norm   :     0.1415453 α      lambda       -0.1275014E-04
   maximum displ.:     0.0957898 α      in ANC's #1, #2, #4, ...

........................................................................
.............................. CYCLE   27 ..............................
........................................................................

 iter      E             dE          RMSdq      gap      omega  full diag
   1    -47.4725782 -0.474726E+02  0.575E-02    2.86       0.0  T
   2    -47.4725790 -0.852046E-06  0.326E-02    2.86       1.0  T
   3    -47.4725788  0.241908E-06  0.595E-03    2.86       3.3  T
   4    -47.4725791 -0.363089E-06  0.296E-03    2.86       6.6  T
   5    -47.4725792 -0.103099E-06  0.966E-04    2.86      20.3  T
   6    -47.4725793 -0.112645E-07  0.250E-04    2.86      78.5  T
     SCC iter.                  ...        0 min,  0.006 sec
     gradient                   ...        0 min,  0.011 sec
 * total energy  :   -46.9836756 Eh     change       -0.1698629E-04 Eh
   gradient norm :     0.0021925 Eh/α   predicted    -0.6434104E-05 ( -62.12%)
   displ. norm   :     0.1588255 α      lambda       -0.2096214E-04
   maximum displ.:     0.1061222 α      in ANC's #1, #2, #4, ...

........................................................................
.............................. CYCLE   28 ..............................
........................................................................

 iter      E             dE          RMSdq      gap      omega  full diag
   1    -47.4724894 -0.474725E+02  0.642E-02    2.86       0.0  T
   2    -47.4724905 -0.106934E-05  0.364E-02    2.86       1.0  T
   3    -47.4724901  0.400300E-06  0.689E-03    2.85       2.8  T
   4    -47.4724906 -0.557248E-06  0.334E-03    2.85       5.9  T
   5    -47.4724908 -0.136316E-06  0.102E-03    2.85      19.2  T
   6    -47.4724908 -0.112715E-07  0.277E-04    2.86      70.9  T
   7    -47.4724908 -0.105246E-09  0.129E-04    2.85     152.6  T
     SCC iter.                  ...        0 min,  0.007 sec
     gradient                   ...        0 min,  0.053 sec
 * total energy  :   -46.9836942 Eh     change       -0.1856652E-04 Eh
   gradient norm :     0.0020637 Eh/α   predicted    -0.1074683E-04 ( -42.12%)
   displ. norm   :     0.2961106 α      lambda       -0.3457070E-04
   maximum displ.:     0.1970660 α      in ANC's #1, #2, #4, ...

........................................................................
.............................. CYCLE   29 ..............................
........................................................................

 iter      E             dE          RMSdq      gap      omega  full diag
   1    -47.4718753 -0.474719E+02  0.119E-01    2.85       0.0  T
   2    -47.4718792 -0.389771E-05  0.679E-02    2.85       1.0  T
   3    -47.4718769  0.224195E-05  0.141E-02    2.85       1.4  T
   4    -47.4718798 -0.292428E-05  0.624E-03    2.85       3.1  T
   5    -47.4718803 -0.461173E-06  0.194E-03    2.85      10.1  T
   6    -47.4718803 -0.344003E-07  0.517E-04    2.85      37.9  T
   7    -47.4718803 -0.355165E-09  0.242E-04    2.85      80.9  T
     SCC iter.                  ...        0 min,  0.007 sec
     gradient                   ...        0 min,  0.011 sec
 * total energy  :   -46.9837183 Eh     change       -0.2411393E-04 Eh
   gradient norm :     0.0025141 Eh/α   predicted    -0.1880338E-04 ( -22.02%)
   displ. norm   :     0.1807687 α      lambda       -0.1849390E-04
   maximum displ.:     0.1207484 α      in ANC's #1, #2, #4, ...

........................................................................
.............................. CYCLE   30 ..............................
........................................................................

 iter      E             dE          RMSdq      gap      omega  full diag
   1    -47.4720434 -0.474720E+02  0.719E-02    2.85       0.0  T
   2    -47.4720447 -0.128496E-05  0.411E-02    2.85       1.0  T
   3    -47.4720443  0.392736E-06  0.724E-03    2.85       2.7  T
   4    -47.4720449 -0.588884E-06  0.353E-03    2.85       5.6  T
   5    -47.4720451 -0.150032E-06  0.110E-03    2.85      17.9  T
   6    -47.4720451 -0.138308E-07  0.317E-04    2.85      61.9  T
   7    -47.4720451 -0.164917E-09  0.154E-04    2.85     127.4  T
     SCC iter.                  ...        0 min,  0.007 sec
     gradient                   ...        0 min,  0.011 sec
 * total energy  :   -46.9837319 Eh     change       -0.1361307E-04 Eh
   gradient norm :     0.0020549 Eh/α   predicted    -0.9550159E-05 ( -29.85%)
   displ. norm   :     0.1306279 α      lambda       -0.2145408E-04
   maximum displ.:     0.0862564 α      in ANC's #1, #2, #3, ...

........................................................................
.............................. CYCLE   31 ..............................
........................................................................

 iter      E             dE          RMSdq      gap      omega  full diag
   1    -47.4732503 -0.474733E+02  0.524E-02    2.85       0.0  T
   2    -47.4732510 -0.758636E-06  0.296E-02    2.85       1.0  T
   3    -47.4732510 -0.775860E-08  0.463E-03    2.85       4.2  T
   4    -47.4732512 -0.143534E-06  0.203E-03    2.85       9.7  T
   5    -47.4732512 -0.195575E-07  0.753E-04    2.85      26.0  T
   6    -47.4732512 -0.968248E-08  0.273E-04    2.85      71.9  T
     SCC iter.                  ...        0 min,  0.011 sec
     gradient                   ...        0 min,  0.020 sec
 * total energy  :   -46.9837451 Eh     change       -0.1319820E-04 Eh
   gradient norm :     0.0010062 Eh/α   predicted    -0.1091050E-04 ( -17.33%)
   displ. norm   :     0.2934748 α      lambda       -0.1069717E-04
   maximum displ.:     0.1928037 α      in ANC's #1, #2, #3, ...

........................................................................
.............................. CYCLE   32 ..............................
........................................................................

 iter      E             dE          RMSdq      gap      omega  full diag
   1    -47.4721148 -0.474721E+02  0.117E-01    2.85       0.0  T
   2    -47.4721179 -0.309911E-05  0.669E-02    2.85       1.0  T
   3    -47.4721159  0.199091E-05  0.135E-02    2.84       1.5  T
   4    -47.4721187 -0.276036E-05  0.570E-03    2.84       3.4  T
   5    -47.4721190 -0.313654E-06  0.178E-03    2.84      11.0  T
   6    -47.4721190 -0.334537E-07  0.526E-04    2.84      37.3  T
   7    -47.4721190 -0.298336E-09  0.222E-04    2.84      88.5  T
     SCC iter.                  ...        0 min,  0.013 sec
     gradient                   ...        0 min,  0.050 sec
 * total energy  :   -46.9837484 Eh     change       -0.3290222E-05 Eh
   gradient norm :     0.0021181 Eh/α   predicted    -0.5554718E-05 (  68.83%)
   displ. norm   :     0.0523117 α      lambda       -0.1106815E-04
   maximum displ.:     0.0336465 α      in ANC's #1, #2, #4, ...

........................................................................
.............................. CYCLE   33 ..............................
........................................................................

 iter      E             dE          RMSdq      gap      omega  full diag
   1    -47.4729853 -0.474730E+02  0.240E-02    2.85       0.0  T
   2    -47.4729857 -0.454279E-06  0.132E-02    2.85       1.5  T
   3    -47.4729854  0.296386E-06  0.479E-03    2.85       4.1  T
   4    -47.4729858 -0.393419E-06  0.176E-03    2.85      11.1  T
   5    -47.4729859 -0.332457E-07  0.648E-04    2.85      30.3  T
   6    -47.4729859 -0.180064E-08  0.119E-04    2.85     165.3  T
     SCC iter.                  ...        0 min,  0.007 sec
     gradient                   ...        0 min,  0.012 sec
 * total energy  :   -46.9837556 Eh     change       -0.7260833E-05 Eh
   gradient norm :     0.0009794 Eh/α   predicted    -0.5549595E-05 ( -23.57%)
   displ. norm   :     0.0390128 α      lambda       -0.5096183E-05
   maximum displ.:     0.0258054 α      in ANC's #3, #5, #4, ...

........................................................................
.............................. CYCLE   34 ..............................
........................................................................

 iter      E             dE          RMSdq      gap      omega  full diag
   1    -47.4735103 -0.474735E+02  0.282E-02    2.85       0.0  T
   2    -47.4735106 -0.299800E-06  0.135E-02    2.85       1.5  T
   3    -47.4735106 -0.452962E-08  0.237E-03    2.85       8.3  T
   4    -47.4735106 -0.513658E-07  0.138E-03    2.85      14.2  T
   5    -47.4735106 -0.106073E-07  0.507E-04    2.85      38.7  T
   6    -47.4735106 -0.312175E-08  0.920E-05    2.85     213.1  T
     SCC iter.                  ...        0 min,  0.007 sec
     gradient                   ...        0 min,  0.012 sec
 * total energy  :   -46.9837607 Eh     change       -0.5049207E-05 Eh
   gradient norm :     0.0012531 Eh/α   predicted    -0.2552529E-05 ( -49.45%)
   displ. norm   :     0.0436705 α      lambda       -0.4330347E-05
   maximum displ.:     0.0299720 α      in ANC's #3, #5, #4, ...

........................................................................
.............................. CYCLE   35 ..............................
........................................................................

 iter      E             dE          RMSdq      gap      omega  full diag
   1    -47.4734530 -0.474735E+02  0.320E-02    2.85       0.0  T
   2    -47.4734533 -0.296163E-06  0.153E-02    2.85       1.3  T
   3    -47.4734533 -0.463679E-07  0.240E-03    2.85       8.2  T
   4    -47.4734533 -0.168254E-07  0.136E-03    2.85      14.4  T
   5    -47.4734533 -0.707762E-08  0.409E-04    2.85      48.0  T
   6    -47.4734533 -0.326784E-08  0.934E-05    2.85     210.0  T
     SCC iter.                  ...        0 min,  0.007 sec
     gradient                   ...        0 min,  0.045 sec
 * total energy  :   -46.9837657 Eh     change       -0.5036653E-05 Eh
   gradient norm :     0.0009216 Eh/α   predicted    -0.2168505E-05 ( -56.95%)
   displ. norm   :     0.0560633 α      lambda       -0.3969486E-05
   maximum displ.:     0.0386570 α      in ANC's #3, #2, #5, ...

........................................................................
.............................. CYCLE   36 ..............................
........................................................................

 iter      E             dE          RMSdq      gap      omega  full diag
   1    -47.4729948 -0.474730E+02  0.387E-02    2.85       0.0  T
   2    -47.4729953 -0.455130E-06  0.191E-02    2.85       1.0  T
   3    -47.4729952  0.402869E-07  0.386E-03    2.85       5.1  T
   4    -47.4729954 -0.146725E-06  0.202E-03    2.85       9.7  T
   5    -47.4729954 -0.151241E-07  0.686E-04    2.85      28.6  T
   6    -47.4729954 -0.681287E-08  0.107E-04    2.85     183.0  T
     SCC iter.                  ...        0 min,  0.007 sec
     gradient                   ...        0 min,  0.011 sec
 * total energy  :   -46.9837700 Eh     change       -0.4271412E-05 Eh
   gradient norm :     0.0008007 Eh/α   predicted    -0.1995732E-05 ( -53.28%)
   displ. norm   :     0.0535219 α      lambda       -0.2562154E-05
   maximum displ.:     0.0373194 α      in ANC's #3, #2, #5, ...

   *** GEOMETRY OPTIMIZATION CONVERGED AFTER 36 ITERATIONS ***

------------------------------------------------------------------------
 total energy gain   :        -0.0123146 Eh       -7.7276 kcal/mol
 total RMSD          :         0.5820053 a0        0.3080 Å
 total power (kW/mol):        -0.8981138 (step)  -20.3193 (real)
------------------------------------------------------------------------

 ANCopt (total)                0 d,  0 h,  0 min,  1.591 sec
 optimizer setup                ...        0 min,  0.000 sec (  0.004%)
 model hessian                  ...        0 min,  0.012 sec (  0.723%)
 ANC generation                 ...        0 min,  0.001 sec (  0.079%)
 coordinate transformation      ...        0 min,  0.000 sec (  0.019%)
 single point calculation       ...        0 min,  1.569 sec ( 98.629%)
 optimization log               ...        0 min,  0.004 sec (  0.228%)
 hessian update                 ...        0 min,  0.000 sec (  0.017%)
 rational function              ...        0 min,  0.002 sec (  0.133%)

================
 final structure:
================
26
 xtb: 6.7.1 (edcfbbe)
N            4.48927587645630        1.35483569330197       -0.56253762859343
C            3.20451963741510        1.06549476956829       -0.29832369572714
N            2.52704574131782        1.94234430805522        0.40384839371505
C            1.24420944699776        1.76035126408426        0.73464834351116
N            0.62127977129251        0.54999307016888        0.24580472258817
C           -0.76365752605404        0.33939306191105        0.55674955540879
C           -0.95721230593932       -0.63019649184833        1.73628004011042
S           -2.61778912488960       -1.32227183403818        1.48706419889036
C           -2.72158114496754       -0.55660042581162       -0.19791952197521
O           -1.42096274762572       -0.21739913837841       -0.55631787714931
C           -3.29446567931666       -1.53328772425671       -1.22021468357412
O           -3.49561517153920       -0.92108724256187       -2.46138112826085
C            1.31910561078988       -0.35801052354598       -0.46471950378932
C            2.62316363700501       -0.15335747764282       -0.76569030532075
O            0.57864858815293        2.51270144777102        1.40386619680017
H            5.06341330868641        0.74336625446865       -1.11229673870652
H            4.85163896535780        2.23118906116437       -0.23185326872482
H           -1.18853043263297        1.32321484038800        0.81501609653078
H           -0.90314236795631       -0.11808109523874        2.69305332173618
H           -0.22699827396341       -1.44040013607626        1.70007514582222
H           -3.35644814496846        0.33627284825607       -0.10709492372865
H           -4.26985902829064       -1.88439981732977       -0.87875837176085
H           -2.61249576627026       -2.39142702426807       -1.30089730867662
H           -2.66065717874389       -0.53212014724063       -2.74829288340468
H            0.77453688977716       -1.23448912157765       -0.78770072516331
H            3.19247741990871       -0.86622841932209       -1.33610745055788

 Bond Distances (Angstroems)
 ---------------------------
N1-C2=1.3432         N1-H16=1.0029        N1-H17=1.0043        C2-N1=1.3432         C2-N3=1.3118         C2-C14=1.4290        
N3-C2=1.3118         N3-C4=1.3372         C4-N3=1.3372         C4-N5=1.4464         C4-O15=1.2070        N5-C4=1.4464         
N5-C6=1.4350         N5-C13=1.3477        C6-N5=1.4350         C6-C7=1.5391         C6-O10=1.4075        C6-H18=1.1023        
C7-C6=1.5391         C7-S8=1.8162         C7-H19=1.0866        C7-H20=1.0913        S8-C7=1.8162         S8-C9=1.8537         
C9-S8=1.8537         C9-O10=1.3911        C9-C11=1.5255        C9-H21=1.0993        O10-C6=1.4075        O10-C9=1.3911        
C11-C9=1.5255        C11-O12=1.3985       C11-H22=1.0915       C11-H23=1.0991       O12-C11=1.3985       O12-H24=0.9648       
C13-N5=1.3477        C13-C14=1.3539       C13-H25=1.0812       C14-C2=1.4290        C14-C13=1.3539       C14-H26=1.0760       
O15-C4=1.2070        H16-N1=1.0029        H17-N1=1.0043        H18-C6=1.1023        H19-C7=1.0866        H20-C7=1.0913        
H21-C9=1.0993        H22-C11=1.0915       H23-C11=1.0991       H24-O12=0.9648       H25-C13=1.0812       H26-C14=1.0760       
 C  H  Rav=1.0909 sigma=0.0087  Rmin=1.0760  Rmax=1.1023     8
 C  C  Rav=1.4619 sigma=0.0754  Rmin=1.3539  Rmax=1.5391     4
 N  H  Rav=1.0036 sigma=0.0007  Rmin=1.0029  Rmax=1.0043     2
 N  C  Rav=1.3702 sigma=0.0512  Rmin=1.3118  Rmax=1.4464     6
 O  H  Rav=0.9648 sigma=0.0000  Rmin=0.9648  Rmax=0.9648     1
 O  C  Rav=1.3510 sigma=0.0833  Rmin=1.2070  Rmax=1.4075     4
 S  C  Rav=1.8350 sigma=0.0187  Rmin=1.8162  Rmax=1.8537     2

 selected bond angles (degree)
 --------------------
H16-N1-C2=121.61               H17-N1-C2=117.92               H17-N1-H16=120.40              N3-C2-N1=117.08                
C14-C2-N1=120.57               C14-C2-N3=122.35               C4-N3-C2=122.47                N5-C4-N3=116.32                
O15-C4-N3=125.54               O15-C4-N5=118.13               C6-N5-C4=117.73                C13-N5-C4=121.26               
C13-N5-C6=121.00               C7-C6-N5=112.33                O10-C6-N5=109.72               O10-C6-C7=107.34               
H18-C6-N5=106.96               H18-C6-C7=109.52               H18-C6-O10=111.00              S8-C7-C6=104.47                
H19-C7-C6=111.82               H19-C7-S8=110.24               H20-C7-C6=110.99               H20-C7-S8=108.92               
H20-C7-H19=110.23              C9-S8-C7= 91.06                O10-C9-S8=106.41               C11-C9-S8=111.45               
C11-C9-O10=109.55              H21-C9-S8=107.02               H21-C9-O10=111.30              H21-C9-C11=111.01              
C9-O10-C6=109.23               

 selected dihedral angles (degree)
 ---------------------------------
N3-C2-N1-H16=181.51           N3-C2-N1-H17=358.40           C14-C2-N1-H16=  1.82          C14-C2-N1-H17=178.71          
C4-N3-C2-N1=180.36            C4-N3-C2-C14=  0.05           N5-C4-N3-C2=358.46            O15-C4-N3-C2=178.10           
C6-N5-C4-N3=181.42            C6-N5-C4-O15=  1.76           C13-N5-C4-N3=  2.16           C13-N5-C4-O15=182.49          
C7-C6-N5-C4=259.76            C7-C6-N5-C13= 79.02           O10-C6-N5-C4=140.45           O10-C6-N5-C13=319.71          
H18-C6-N5-C4= 19.96           H18-C6-N5-C13=199.22          S8-C7-C6-N5=204.70            S8-C7-C6-O10=325.40           
S8-C7-C6-H18= 86.00           H19-C7-C6-N5= 85.49           H19-C7-C6-O10=206.18          H19-C7-C6-H18=326.78          
H20-C7-C6-N5=321.95           H20-C7-C6-O10= 82.64          H20-C7-C6-H18=203.24          C9-S8-C7-C6=  9.65            
C9-S8-C7-H19=129.93           C9-S8-C7-H20=251.00           O10-C9-S8-C7= 16.90           C11-C9-S8-C7=136.28           
H21-C9-S8-C7=257.82           C9-O10-C6-N5=173.36           C9-O10-C6-C7= 51.03           C9-O10-C6-H18=291.36          
C6-O10-C9-S8=318.15           C6-O10-C9-C11=197.54          C6-O10-C9-H21= 74.40          
           -------------------------------------------------
          |                Final Singlepoint                |
           -------------------------------------------------

          ...................................................
          :                      SETUP                      :
          :.................................................:
          :  # basis functions                  77          :
          :  # atomic orbitals                  76          :
          :  # shells                           42          :
          :  # electrons                        82          :
          :  max. iterations                   250          :
          :  Hamiltonian                  GFN2-xTB          :
          :  restarted?                      false          :
          :  GBSA solvation                  false          :
          :  PC potential                    false          :
          :  electronic temp.          300.0000000     K    :
          :  accuracy                    1.0000000          :
          :  -> integral cutoff          0.2500000E+02      :
          :  -> integral neglect         0.1000000E-07      :
          :  -> SCF convergence          0.1000000E-05 Eh   :
          :  -> wf. convergence          0.1000000E-03 e    :
          :  Broyden damping             0.4000000          :
          :  net charge                          0          :
          :  unpaired electrons                  0          :
          ...................................................

 iter      E             dE          RMSdq      gap      omega  full diag
   1    -47.4729954 -0.474730E+02  0.576E-05    2.85       0.0  T
   2    -47.4729954 -0.883205E-11  0.326E-05    2.85     601.4  T
   3    -47.4729954 -0.973444E-12  0.203E-05    2.85     965.7  T

   *** convergence criteria satisfied after 3 iterations ***

         #    Occupation            Energy/Eh            Energy/eV
      -------------------------------------------------------------
         1        2.0000           -0.7532183             -20.4961
       ...           ...                  ...                  ...
        35        2.0000           -0.4455667             -12.1245
        36        2.0000           -0.4330973             -11.7852
        37        2.0000           -0.4178539             -11.3704
        38        2.0000           -0.4126323             -11.2283
        39        2.0000           -0.4034890             -10.9795
        40        2.0000           -0.3878368             -10.5536
        41        2.0000           -0.3776340             -10.2759 (HOMO)
        42                         -0.2728542              -7.4247 (LUMO)
        43                         -0.2356319              -6.4119
        44                         -0.2235356              -6.0827
        45                         -0.1592245              -4.3327
        46                         -0.1264568              -3.4411
       ...                                ...                  ...
        76                          0.6757187              18.3872
      -------------------------------------------------------------
                  HL-Gap            0.1047798 Eh            2.8512 eV
             Fermi-level           -0.3252441 Eh           -8.8503 eV

 SCC (total)                   0 d,  0 h,  0 min,  0.019 sec
 SCC setup                      ...        0 min,  0.000 sec (  0.777%)
 Dispersion                     ...        0 min,  0.000 sec (  0.627%)
 classical contributions        ...        0 min,  0.000 sec (  0.293%)
 integral evaluation            ...        0 min,  0.004 sec ( 21.302%)
 iterations                     ...        0 min,  0.003 sec ( 17.612%)
 molecular gradient             ...        0 min,  0.011 sec ( 58.920%)
 printout                       ...        0 min,  0.000 sec (  0.440%)

         :::::::::::::::::::::::::::::::::::::::::::::::::::::
         ::                     SUMMARY                     ::
         :::::::::::::::::::::::::::::::::::::::::::::::::::::
         :: total energy             -46.983769999680 Eh    ::
         :: gradient norm              0.000800919925 Eh/a0 ::
         :: HOMO-LUMO gap              2.851203929870 eV    ::
         ::.................................................::
         :: SCC energy               -47.472926447422 Eh    ::
         :: -> isotropic ES            0.102840800649 Eh    ::
         :: -> anisotropic ES          0.001164363406 Eh    ::
         :: -> anisotropic XC          0.013647375601 Eh    ::
         :: -> dispersion             -0.025473102452 Eh    ::
         :: repulsion energy           0.489156447743 Eh    ::
         :: add. restraining           0.000000000000 Eh    ::
         :: total charge               0.000000000000 e     ::
         :::::::::::::::::::::::::::::::::::::::::::::::::::::

           -------------------------------------------------
          |                Property Printout                |
           -------------------------------------------------

    * Orbital Energies and Occupations

         #    Occupation            Energy/Eh            Energy/eV
      -------------------------------------------------------------
         1        2.0000           -0.7532183             -20.4961
       ...           ...                  ...                  ...
        29        2.0000           -0.5042733             -13.7220
        30        2.0000           -0.5002727             -13.6131
        31        2.0000           -0.4940130             -13.4428
        32        2.0000           -0.4882815             -13.2868
        33        2.0000           -0.4784755             -13.0200
        34        2.0000           -0.4667813             -12.7018
        35        2.0000           -0.4455667             -12.1245
        36        2.0000           -0.4330973             -11.7852
        37        2.0000           -0.4178539             -11.3704
        38        2.0000           -0.4126323             -11.2283
        39        2.0000           -0.4034890             -10.9795
        40        2.0000           -0.3878368             -10.5536
        41        2.0000           -0.3776340             -10.2759 (HOMO)
        42                         -0.2728542              -7.4247 (LUMO)
        43                         -0.2356319              -6.4119
        44                         -0.2235356              -6.0827
        45                         -0.1592245              -4.3327
        46                         -0.1264568              -3.4411
        47                         -0.0437583              -1.1907
        48                         -0.0370810              -1.0090
        49                         -0.0133971              -0.3646
        50                         -0.0084470              -0.2299
        51                         -0.0054872              -0.1493
        52                          0.0247772               0.6742
       ...                                ...                  ...
        76                          0.6757187              18.3872
      -------------------------------------------------------------
                  HL-Gap            0.1047798 Eh            2.8512 eV
             Fermi-level           -0.3252441 Eh           -8.8503 eV

     #   Z          covCN         q      C6AA      α(0)
     1   7 N        2.655    -0.235    26.143     7.594
     2   6 C        2.868     0.187    24.013     8.033
     3   7 N        1.851    -0.309    28.850     7.961
     4   6 C        2.733     0.337    21.275     7.552
     5   7 N        2.747    -0.102    23.230     7.158
     6   6 C        3.828     0.193    17.533     5.958
     7   6 C        3.796    -0.020    20.944     6.517
     8  16 S        2.067    -0.204   149.724    20.594
     9   6 C        3.782     0.150    18.193     6.076
    10   8 O        1.724    -0.316    19.261     5.926
    11   6 C        3.698     0.077    19.450     6.308
    12   8 O        1.656    -0.423    21.302     6.231
    13   6 C        2.864     0.052    26.830     8.490
    14   6 C        2.910    -0.098    30.457     9.050
    15   8 O        0.859    -0.438    22.456     6.354
    16   1 H        0.861     0.187     1.175     1.698
    17   1 H        0.860     0.205     1.079     1.627
    18   1 H        0.923     0.066     2.129     2.282
    19   1 H        0.925     0.070     2.090     2.261
    20   1 H        0.924     0.055     2.256     2.349
    21   1 H        0.923     0.039     2.462     2.454
    22   1 H        0.924     0.068     2.109     2.271
    23   1 H        0.923     0.042     2.424     2.435
    24   1 H        0.805     0.302     0.714     1.327
    25   1 H        0.925     0.064     2.149     2.292
    26   1 H        0.926     0.049     2.329     2.386

 Mol. C6AA /au·bohr⁶  :       8759.975620
 Mol. C8AA /au·bohr⁸  :     223009.609565
 Mol. α(0) /au        :        143.181550


Wiberg/Mayer (AO) data.
largest (>0.10) Wiberg bond orders for each atom

 ---------------------------------------------------------------------------
     #   Z sym  total        # sym  WBO       # sym  WBO       # sym  WBO
 ---------------------------------------------------------------------------
     1   7 N    3.391 --     2 C    1.274    16 H    0.947    17 H    0.939
                             3 N    0.107
     2   6 C    3.966 --     3 N    1.421     1 N    1.274    14 C    1.168
     3   7 N    3.053 --     2 C    1.421     4 C    1.241    15 O    0.119
                             1 N    0.107
     4   6 C    3.950 --    15 O    1.661     3 N    1.241     5 N    0.959
     5   7 N    3.570 --    13 C    1.258     6 C    0.988     4 C    0.959
                            15 O    0.123
     6   6 C    3.934 --     5 N    0.988    10 O    0.964     7 C    0.964
                            18 H    0.945
     7   6 C    3.978 --     8 S    1.005    20 H    0.975    19 H    0.975
                             6 C    0.964
     8  16 S    2.058 --     7 C    1.005     9 C    0.924
     9   6 C    3.931 --    10 O    1.004    11 C    0.983    21 H    0.958
                             8 S    0.924
    10   8 O    2.122 --     9 C    1.004     6 C    0.964
    11   6 C    3.960 --    12 O    1.013     9 C    0.983    22 H    0.969
                            23 H    0.966
    12   8 O    1.976 --    11 C    1.013    24 H    0.894
    13   6 C    3.966 --    14 C    1.608     5 N    1.258    25 H    0.958
    14   6 C    3.973 --    13 C    1.608     2 C    1.168    26 H    0.967
    15   8 O    2.017 --     4 C    1.661     5 N    0.123     3 N    0.119
    16   1 H    0.964 --     1 N    0.947
    17   1 H    0.957 --     1 N    0.939
    18   1 H    0.995 --     6 C    0.945
    19   1 H    0.995 --     7 C    0.975
    20   1 H    0.997 --     7 C    0.975
    21   1 H    0.998 --     9 C    0.958
    22   1 H    0.995 --    11 C    0.969
    23   1 H    0.998 --    11 C    0.966
    24   1 H    0.909 --    12 O    0.894
    25   1 H    0.995 --    13 C    0.958
    26   1 H    0.997 --    14 C    0.967
 ---------------------------------------------------------------------------

Topologies differ in total number of bonds
Writing topology from bond orders to xtbtopo.mol

molecular dipole:
                 x           y           z       tot (Debye)
 q only:        1.913      -1.101      -0.972
   full:        2.304      -1.238      -1.275       7.397
molecular quadrupole (traceless):
                xx          xy          yy          xz          yz          zz
 q only:       18.522       0.045     -12.499      -9.212      -6.267      -6.023
  q+dip:       17.195      -7.147     -11.132     -11.880      -5.602      -6.063
   full:       17.035      -6.374     -12.889     -10.739      -7.559      -4.146

           -------------------------------------------------
          |                Geometry Summary                 |
           -------------------------------------------------

      molecular mass/u    :      229.2563472
   center of mass at/Å    :       -0.1738499       0.1256919       0.0904307
  moments of inertia/u·Å² :        0.4585040E+03   0.1761173E+04   0.1951237E+04
rotational constants/cm⁻¹ :        0.3676660E-01   0.9571822E-02   0.8639461E-02

 * 24 selected distances

     #   Z          #   Z                                           value/Å
     1   7 N        2   6 C                                       1.3431776
     2   6 C        3   7 N                                       1.3118239
     3   7 N        4   6 C                                       1.3372432
     5   7 N        6   6 C                                       1.4349532
     6   6 C        7   6 C                                       1.5391101 (max)
     6   6 C       10   8 O                                       1.4074755
     9   6 C       10   8 O                                       1.3910843
     9   6 C       11   6 C                                       1.5255172
    11   6 C       12   8 O                                       1.3984796
     5   7 N       13   6 C                                       1.3476930
     2   6 C       14   6 C                                       1.4289883
    13   6 C       14   6 C                                       1.3538958
     4   6 C       15   8 O                                       1.2070024
     1   7 N       16   1 H                                       1.0028778
     1   7 N       17   1 H                                       1.0043180
     6   6 C       18   1 H                                       1.1023267
     7   6 C       19   1 H                                       1.0865547
     7   6 C       20   1 H                                       1.0913082
     9   6 C       21   1 H                                       1.0993308
    11   6 C       22   1 H                                       1.0914506
    11   6 C       23   1 H                                       1.0990887
    12   8 O       24   1 H                                       0.9647636 (min)
    13   6 C       25   1 H                                       1.0812432
    14   6 C       26   1 H                                       1.0759550

 * 6 distinct bonds (by element types)

   Z      Z             #   av. dist./Å        max./Å        min./Å
   1 H    6 C           8     1.0909072     1.1023267     1.0759550
   6 C    6 C           4     1.4618779     1.5391101     1.3538958
   1 H    7 N           2     1.0035979     1.0043180     1.0028778
   6 C    7 N           5     1.3549782     1.4349532     1.3118239
   1 H    8 O           1     0.9647636     0.9647636     0.9647636
   6 C    8 O           4     1.3510104     1.4074755     1.2070024


optimized geometry written to: xtbopt.xyz


           -------------------------------------------------
          | TOTAL ENERGY              -46.983769999680 Eh   |
          | GRADIENT NORM               0.000800919925 Eh/α |
          | HOMO-LUMO GAP               2.851203929870 eV   |
           -------------------------------------------------

------------------------------------------------------------------------
 * finished run on 2025/05/15 at 16:12:45.734     
------------------------------------------------------------------------
 total:
 * wall-time:     0 d,  0 h,  0 min,  1.653 sec
 *  cpu-time:     0 d,  0 h,  0 min,  0.925 sec
 * ratio c/w:     0.559 speedup
 SCF:
 * wall-time:     0 d,  0 h,  0 min,  0.030 sec
 *  cpu-time:     0 d,  0 h,  0 min,  0.029 sec
 * ratio c/w:     0.994 speedup
 ANC optimizer:
 * wall-time:     0 d,  0 h,  0 min,  1.613 sec
 *  cpu-time:     0 d,  0 h,  0 min,  0.887 sec
 * ratio c/w:     0.550 speedup



----- Single-point -----
      -----------------------------------------------------------      
     |                   =====================                   |     
     |                           x T B                           |     
     |                   =====================                   |     
     |                         S. Grimme                         |     
     |          Mulliken Center for Theoretical Chemistry        |     
     |                    University of Bonn                     |     
      -----------------------------------------------------------      

   * xtb version 6.7.1 (edcfbbe) compiled by 'conda@3ef47c1a292c' on 2024-11-25

   xtb is free software: you can redistribute it and/or modify it under
   the terms of the GNU Lesser General Public License as published by
   the Free Software Foundation, either version 3 of the License, or
   (at your option) any later version.
   
   xtb is distributed in the hope that it will be useful,
   but WITHOUT ANY WARRANTY; without even the implied warranty of
   MERCHANTABILITY or FITNESS FOR A PARTICULAR PURPOSE.  See the
   GNU Lesser General Public License for more details.
   
   Cite this work as:
   * C. Bannwarth, E. Caldeweyher, S. Ehlert, A. Hansen, P. Pracht,
     J. Seibert, S. Spicher, S. Grimme, WIREs Comput. Mol. Sci., 2020, 11,
     e01493. DOI: 10.1002/wcms.1493
   
   for GFN2-xTB:
   * C. Bannwarth, S. Ehlert and S. Grimme., J. Chem. Theory Comput., 2019,
     15, 1652-1671. DOI: 10.1021/acs.jctc.8b01176
   for GFN1-xTB:
   * S. Grimme, C. Bannwarth, P. Shushkov, J. Chem. Theory Comput., 2017,
     13, 1989-2009. DOI: 10.1021/acs.jctc.7b00118
   for GFN0-xTB:
   * P. Pracht, E. Caldeweyher, S. Ehlert, S. Grimme, ChemRxiv, 2019, preprint.
     DOI: 10.26434/chemrxiv.8326202.v1
   for GFN-FF:
[...]
     |                         S. Grimme                         |     
     |          Mulliken Center for Theoretical Chemistry        |     
     |                    University of Bonn                     |     
      -----------------------------------------------------------      

   * xtb version 6.7.1 (edcfbbe) compiled by 'conda@3ef47c1a292c' on 2024-11-25

   xtb is free software: you can redistribute it and/or modify it under
   the terms of the GNU Lesser General Public License as published by
   the Free Software Foundation, either version 3 of the License, or
   (at your option) any later version.
   
   xtb is distributed in the hope that it will be useful,
   but WITHOUT ANY WARRANTY; without even the implied warranty of
   MERCHANTABILITY or FITNESS FOR A PARTICULAR PURPOSE.  See the
   GNU Lesser General Public License for more details.
   
   Cite this work as:
   * C. Bannwarth, E. Caldeweyher, S. Ehlert, A. Hansen, P. Pracht,
     J. Seibert, S. Spicher, S. Grimme, WIREs Comput. Mol. Sci., 2020, 11,
     e01493. DOI: 10.1002/wcms.1493
   
   for GFN2-xTB:
   * C. Bannwarth, S. Ehlert and S. Grimme., J. Chem. Theory Comput., 2019,
     15, 1652-1671. DOI: 10.1021/acs.jctc.8b01176
   for GFN1-xTB:
   * S. Grimme, C. Bannwarth, P. Shushkov, J. Chem. Theory Comput., 2017,
     13, 1989-2009. DOI: 10.1021/acs.jctc.7b00118
   for GFN0-xTB:
   * P. Pracht, E. Caldeweyher, S. Ehlert, S. Grimme, ChemRxiv, 2019, preprint.
     DOI: 10.26434/chemrxiv.8326202.v1
   for GFN-FF:
   * S. Spicher and S. Grimme, Angew. Chem. Int. Ed., 2020, 59, 15665-15673.
     DOI: 10.1002/anie.202004239
   
   for ALPB and GBSA implicit solvation:
   * S. Ehlert, M. Stahn, S. Spicher, S. Grimme, J. Chem. Theory Comput.,
     2021, 17, 4250-4261. DOI: 10.1021/acs.jctc.1c00471
   
   for ddCOSMO and CPCM-X implicit solvation:
   * M. Stahn, S. Ehlert, S. Grimme, J. Phys. Chem. A,
     2023, XX, XXXX-XXXX. DOI: 10.1021/acs.jpca.3c04382
   
   for DFT-D4:
   * E. Caldeweyher, C. Bannwarth and S. Grimme, J. Chem. Phys., 2017,
     147, 034112. DOI: 10.1063/1.4993215
   * E. Caldeweyher, S. Ehlert, A. Hansen, H. Neugebauer, S. Spicher,
     C. Bannwarth and S. Grimme, J. Chem. Phys., 2019, 150, 154122.
     DOI: 10.1063/1.5090222
   * E. Caldeweyher, J.-M. Mewes, S. Ehlert and S. Grimme, Phys. Chem. Chem. Phys.
     2020, 22, 8499-8512. DOI: 10.1039/D0CP00502A
   
   for sTDA-xTB:
   * S. Grimme and C. Bannwarth, J. Chem. Phys., 2016, 145, 054103.
     DOI: 10.1063/1.4959605
   
   in the mass-spec context:
   * V. Asgeirsson, C. Bauer and S. Grimme, Chem. Sci., 2017, 8, 4879.
     DOI: 10.1039/c7sc00601b
   * J. Koopman and S. Grimme, ACS Omega 2019, 4, 12, 15120-15133.
     DOI: 10.1021/acsomega.9b02011
   
   for metadynamics refer to:
   * S. Grimme, J. Chem. Theory Comput., 2019, 155, 2847-2862
     DOI: 10.1021/acs.jctc.9b00143
   
   for SPH calculations refer to:
   * S. Spicher and S. Grimme, J. Chem. Theory Comput., 2021, 17, 1701-1714
     DOI: 10.1021/acs.jctc.0c01306
   
   for ONIOM refer to:
   * C. Plett, A. Katbashev, S. Ehlert, S. Grimme, M. Bursch,
     Phys. Chem. Chem. Phys., 2023, 25, 17860-17868. DOI: 10.1039/D3CP02178E
   
   for DIPRO refer to:
   * J. Kohn, N. Gildemeister, S. Grimme, D. Fazzi, A. Hansen,
     J. Chem. Phys., 2023, just accepted.
   
   for PTB refer to:
   * S. Grimme, M. Mueller, A. Hansen, J. Chem. Phys., 2023, 158, 124111.
     DOI: 10.1063/5.0137838
   
   with help from (in alphabetical order)
   P. Atkinson, C. Bannwarth, F. Bohle, G. Brandenburg, E. Caldeweyher
   M. Checinski, S. Dohm, S. Ehlert, S. Ehrlich, I. Gerasimov, C. Hölzer
   A. Katbashev, J. Kohn, J. Koopman, C. Lavigne, S. Lehtola, F. März, M. Müller,
   F. Musil, H. Neugebauer, J. Pisarek, C. Plett, P. Pracht, F. Pultar,
   J. Seibert, P. Shushkov, S. Spicher, M. Stahn, M. Steiner, T. Strunk,
   J. Stückrath, T. Rose, and J. Unsleber
   
 * started run on 2025/05/15 at 16:12:47.130     
   ID    Z sym.   atoms
    1    7 N      1, 3, 5
    2    6 C      2, 4, 6, 7, 9, 11, 13, 14
    3   16 S      8
    4    8 O      10, 12, 15
    5    1 H      16-26

           -------------------------------------------------
          |                Calculation Setup                |
           -------------------------------------------------

          program call               : xtb /rds/general/user/hgt20/home/callum/QDESCP/Lamivudine_rdkit_conf_4/Lamivudine_rdkit_conf_4.xyz --acc 1 --gfn 2 --chrg 0 --uhf 2 --etemp 300 --input /rds/general/user/hgt20/home/callum/QDESCP/Lamivudine_rdkit_conf_4/Lamivudine_rdkit_conf_4_xtb.inp -P 1
          hostname                   : login-c
          coordinate file            : /rds/general/user/hgt20/home/callum/QDESCP/Lamivudine_rdkit_conf_4/Lamivudine_rdkit_conf_4.xyz
          omp threads                :                     1


           -------------------------------------------------
          |                 G F N 2 - x T B                 |
           -------------------------------------------------

        Reference                      10.1021/acs.jctc.8b01176
      * Hamiltonian:
        H0-scaling (s, p, d)           1.850000    2.230000    2.230000
        zeta-weighting                 0.500000
      * Dispersion:
        s8                             2.700000
        a1                             0.520000
        a2                             5.000000
        s9                             5.000000
      * Repulsion:
        kExp                           1.500000    1.000000
        rExp                           1.000000
      * Coulomb:
        alpha                          2.000000
        third order                    shell-resolved
        anisotropic                    true
        a3                             3.000000
        a5                             4.000000
        cn-shift                       1.200000
        cn-exp                         4.000000
        max-rad                        5.000000


          ...................................................
          :                      SETUP                      :
          :.................................................:
          :  # basis functions                  77          :
          :  # atomic orbitals                  76          :
          :  # shells                           42          :
          :  # electrons                        82          :
          :  max. iterations                   250          :
          :  Hamiltonian                  GFN2-xTB          :
          :  restarted?                      false          :
          :  GBSA solvation                  false          :
          :  PC potential                    false          :
          :  electronic temp.          300.0000000     K    :
          :  accuracy                    1.0000000          :
          :  -> integral cutoff          0.2500000E+02      :
          :  -> integral neglect         0.1000000E-07      :
          :  -> SCF convergence          0.1000000E-05 Eh   :
          :  -> wf. convergence          0.1000000E-03 e    :
          :  Broyden damping             0.4000000          :
          :  net charge                          0          :
          :  unpaired electrons                  2          :
          ...................................................

 iter      E             dE          RMSdq      gap      omega  full diag
   1    -47.1024298 -0.471024E+02  0.502E+00    0.38       0.0  T
   2    -47.1449984 -0.425686E-01  0.366E+00    1.40       1.0  T
   3    -46.9983693  0.146629E+00  0.351E+00    1.19       1.0  T
   4    -47.2233480 -0.224979E+00  0.198E+00    0.91       1.0  T
   5    -47.1220362  0.101312E+00  0.248E+00    0.53       1.0  T
   6    -47.2740057 -0.151969E+00  0.197E+00    0.38       1.0  T
   7    -47.3006946 -0.266889E-01  0.160E+00    0.39       1.0  T
   8    -47.3033263 -0.263168E-02  0.156E+00    0.41       1.0  T
   9    -47.2364229  0.669034E-01  0.261E+00    0.47       1.0  T
  10    -47.2909129 -0.544900E-01  0.145E+00    0.49       1.0  T
  11    -47.3252916 -0.343787E-01  0.108E+00    0.40       1.0  T
  12    -47.3321819 -0.689037E-02  0.705E-01    0.43       1.0  T
  13    -47.2794298  0.527522E-01  0.181E+00    0.45       1.0  T
  14    -47.3428518 -0.634220E-01  0.155E-01    0.41       1.0  T
  15    -47.3404889  0.236289E-02  0.349E-01    0.43       1.0  T
  16    -47.3363367  0.415221E-02  0.597E-01    0.41       1.0  T
  17    -47.3416429 -0.530621E-02  0.315E-01    0.41       1.0  T
  18    -47.3429869 -0.134404E-02  0.154E-01    0.41       1.0  T
  19    -47.3433762 -0.389271E-03  0.414E-02    0.42       1.0  T
  20    -47.3433999 -0.237379E-04  0.172E-02    0.42       1.1  T
  21    -47.3434026 -0.262567E-05  0.119E-02    0.42       1.7  T
  22    -47.3434051 -0.251012E-05  0.124E-03    0.42      15.8  T
  23    -47.3434051  0.174410E-07  0.167E-03    0.42      11.7  T
  24    -47.3434051 -0.495788E-07  0.767E-05    0.42     255.6  T
  25    -47.3434051  0.623142E-08  0.586E-04    0.42      33.5  T

   *** convergence criteria satisfied after 25 iterations ***

         #    Occupation            Energy/Eh            Energy/eV
      -------------------------------------------------------------
         1        2.0000           -0.7536757             -20.5086
       ...           ...                  ...                  ...
        36        2.0000           -0.4360197             -11.8647
        37        2.0000           -0.4207447             -11.4490
        38        2.0000           -0.4095963             -11.1457
        39        1.9009           -0.3982251             -10.8363
        40        1.6026           -0.3965234             -10.7900
        41        1.4965           -0.3961149             -10.7788
        42        0.9997           -0.2549286              -6.9370 (HOMO)
        43        0.0003           -0.2396677              -6.5217 (LUMO)
        44                         -0.2178968              -5.9293
        45                         -0.1725290              -4.6948
        46                         -0.1169763              -3.1831
        47                         -0.0474625              -1.2915
       ...                                ...                  ...
        76                          0.6755333              18.3822
      -------------------------------------------------------------
                  HL-Gap            0.0152610 Eh            0.4153 eV
             Fermi-level           -0.3217131 Eh           -8.7543 eV

 transition dipole moment (au) for excitation:          41          42
     X       Y       Z   
   1.0542   0.4892  -0.1154  total (au/Debye):    1.168   2.969
 dE (eV)             :    3.842
 oscillator strength :  0.18156E+00

 SCC (total)                   0 d,  0 h,  0 min,  0.082 sec
 SCC setup                      ...        0 min,  0.000 sec (  0.243%)
 Dispersion                     ...        0 min,  0.000 sec (  0.234%)
 classical contributions        ...        0 min,  0.000 sec (  0.076%)
 integral evaluation            ...        0 min,  0.004 sec (  5.259%)
 iterations                     ...        0 min,  0.061 sec ( 74.646%)
 molecular gradient             ...        0 min,  0.011 sec ( 14.055%)
 printout                       ...        0 min,  0.004 sec (  5.479%)

         :::::::::::::::::::::::::::::::::::::::::::::::::::::
         ::                     SUMMARY                     ::
         :::::::::::::::::::::::::::::::::::::::::::::::::::::
         :: total energy             -46.854179704579 Eh    ::
         :: gradient norm              0.104584489198 Eh/a0 ::
         :: HOMO-LUMO gap              0.415272501638 eV    ::
         ::.................................................::
         :: SCC energy               -47.343336152322 Eh    ::
         :: -> isotropic ES            0.093342812992 Eh    ::
         :: -> anisotropic ES          0.001151509214 Eh    ::
         :: -> anisotropic XC          0.006827402272 Eh    ::
         :: -> dispersion             -0.025501406798 Eh    ::
         :: repulsion energy           0.489156447743 Eh    ::
         :: add. restraining           0.000000000000 Eh    ::
         :: total charge               0.000000000000 e     ::
         :::::::::::::::::::::::::::::::::::::::::::::::::::::

           -------------------------------------------------
          |                Property Printout                |
           -------------------------------------------------

    * Orbital Energies and Occupations

         #    Occupation            Energy/Eh            Energy/eV
      -------------------------------------------------------------
         1        2.0000           -0.7536757             -20.5086
       ...           ...                  ...                  ...
        30        2.0000           -0.4942970             -13.4505
        31        2.0000           -0.4873511             -13.2615
        32        2.0000           -0.4850923             -13.2000
        33        2.0000           -0.4747739             -12.9193
        34        2.0000           -0.4701070             -12.7923
        35        2.0000           -0.4474672             -12.1762
        36        2.0000           -0.4360197             -11.8647
        37        2.0000           -0.4207447             -11.4490
        38        2.0000           -0.4095963             -11.1457
        39        1.9009           -0.3982251             -10.8363
        40        1.6026           -0.3965234             -10.7900
        41        1.4965           -0.3961149             -10.7788
        42        0.9997           -0.2549286              -6.9370 (HOMO)
        43        0.0003           -0.2396677              -6.5217 (LUMO)
        44                         -0.2178968              -5.9293
        45                         -0.1725290              -4.6948
        46                         -0.1169763              -3.1831
        47                         -0.0474625              -1.2915
        48                         -0.0413380              -1.1249
        49                         -0.0214020              -0.5824
        50                         -0.0202376              -0.5507
        51                          0.0053882               0.1466
        52                          0.0278089               0.7567
        53                          0.0509573               1.3866
       ...                                ...                  ...
        76                          0.6755333              18.3822
      -------------------------------------------------------------
                  HL-Gap            0.0152610 Eh            0.4153 eV
             Fermi-level           -0.3217131 Eh           -8.7543 eV

     #   Z          covCN         q      C6AA      α(0)
     1   7 N        2.655    -0.247    26.433     7.636
     2   6 C        2.868     0.139    24.959     8.189
     3   7 N        1.851    -0.256    27.517     7.775
     4   6 C        2.733     0.331    21.368     7.568
     5   7 N        2.747    -0.098    23.167     7.149
     6   6 C        3.828     0.193    17.537     5.959
     7   6 C        3.796    -0.035    21.202     6.557
     8  16 S        2.067    -0.131   146.537    20.374
     9   6 C        3.782     0.136    18.396     6.110
    10   8 O        1.724    -0.314    19.237     5.922
    11   6 C        3.698     0.078    19.440     6.306
    12   8 O        1.656    -0.421    21.256     6.224
    13   6 C        2.864    -0.009    28.228     8.709
    14   6 C        2.910    -0.076    29.890     8.965
    15   8 O        0.859    -0.422    22.122     6.306
    16   1 H        0.861     0.178     1.228     1.736
    17   1 H        0.860     0.192     1.146     1.677
    18   1 H        0.923     0.061     2.191     2.315
    19   1 H        0.925     0.073     2.049     2.239
    20   1 H        0.924     0.067     2.124     2.279
    21   1 H        0.923     0.043     2.410     2.428
    22   1 H        0.924     0.068     2.104     2.268
    23   1 H        0.923     0.043     2.411     2.428
    24   1 H        0.805     0.305     0.706     1.320
    25   1 H        0.925     0.051     2.305     2.374
    26   1 H        0.926     0.050     2.320     2.382

 Mol. C6AA /au·bohr⁶  :       8760.328191
 Mol. C8AA /au·bohr⁸  :     222850.079315
 Mol. α(0) /au        :        143.192735


Wiberg/Mayer (AO) data.
largest (>0.10) Wiberg bond orders for each atom

 ---------------------------------------------------------------------------
     #   Z sym  total        # sym  WBO       # sym  WBO       # sym  WBO
 ---------------------------------------------------------------------------
     1   7 N    3.264 --     2 C    1.202    16 H    0.951    17 H    0.944
     2   6 C    3.839 --     3 N    1.270    14 C    1.216     1 N    1.202
     3   7 N    2.911 --     4 C    1.286     2 C    1.270    15 O    0.160
     4   6 C    3.941 --    15 O    1.620     3 N    1.286     5 N    0.935
     5   7 N    3.398 --    13 C    1.174     6 C    1.005     4 C    0.935
     6   6 C    3.931 --     5 N    1.005    10 O    0.955     7 C    0.951
                            18 H    0.945
     7   6 C    3.958 --    19 H    0.970     8 S    0.967    20 H    0.966
                             6 C    0.951
     8  16 S    2.091 --     7 C    0.967     9 C    0.871
     9   6 C    3.903 --    10 O    1.008    11 C    0.978    21 H    0.950
                             8 S    0.871
    10   8 O    2.120 --     9 C    1.008     6 C    0.955
    11   6 C    3.954 --    12 O    1.014     9 C    0.978    22 H    0.968
                            23 H    0.965
    12   8 O    1.977 --    11 C    1.014    24 H    0.892
    13   6 C    3.822 --    14 C    1.410     5 N    1.174    25 H    0.947
    14   6 C    3.760 --    13 C    1.410     2 C    1.216    26 H    0.962
    15   8 O    1.964 --     4 C    1.620     3 N    0.160
    16   1 H    0.968 --     1 N    0.951
    17   1 H    0.961 --     1 N    0.944
    18   1 H    0.994 --     6 C    0.945
    19   1 H    0.989 --     7 C    0.970
    20   1 H    0.986 --     7 C    0.966
    21   1 H    0.989 --     9 C    0.950
    22   1 H    0.994 --    11 C    0.968
    23   1 H    0.997 --    11 C    0.965
    24   1 H    0.907 --    12 O    0.892
    25   1 H    0.981 --    13 C    0.947
    26   1 H    0.991 --    14 C    0.962
 ---------------------------------------------------------------------------

Topologies differ in total number of bonds
Writing topology from bond orders to xtbtopo.mol

molecular dipole:
                 x           y           z       tot (Debye)
 q only:        1.182      -1.185      -0.612
   full:        1.677      -1.140      -0.891       5.631
molecular quadrupole (traceless):
                xx          xy          yy          xz          yz          zz
 q only:       16.235       0.822     -11.263      -9.339      -6.477      -4.972
  q+dip:       14.479      -5.747      -9.059     -10.695      -5.109      -5.420
   full:       14.430      -4.997     -10.481      -9.963      -6.572      -3.949


           -------------------------------------------------
          | TOTAL ENERGY              -46.854179704579 Eh   |
          | GRADIENT NORM               0.104584489198 Eh/α |
          | HOMO-LUMO GAP               0.415272501638 eV   |
           -------------------------------------------------

------------------------------------------------------------------------
 * finished run on 2025/05/15 at 16:12:47.222     
------------------------------------------------------------------------
 total:
 * wall-time:     0 d,  0 h,  0 min,  0.091 sec
 *  cpu-time:     0 d,  0 h,  0 min,  0.056 sec
 * ratio c/w:     0.610 speedup
 SCF:
 * wall-time:     0 d,  0 h,  0 min,  0.082 sec
 *  cpu-time:     0 d,  0 h,  0 min,  0.047 sec
 * ratio c/w:     0.581 speedup


