----- Optimization -----
      -----------------------------------------------------------      
     |                   =====================                   |     
     |                           x T B                           |     
     |                   =====================                   |     
     |                         S. Grimme                         |     
     |          Mulliken Center for Theoretical Chemistry        |     
     |                    University of Bonn                     |     
      -----------------------------------------------------------      

   * xtb version 6.7.1 (edcfbbe) compiled by 'conda@3ef47c1a292c' on 2024-11-25

   xtb is free software: you can redistribute it and/or modify it under
   the terms of the GNU Lesser General Public License as published by
   the Free Software Foundation, either version 3 of the License, or
   (at your option) any later version.
   
   xtb is distributed in the hope that it will be useful,
   but WITHOUT ANY WARRANTY; without even the implied warranty of
   MERCHANTABILITY or FITNESS FOR A PARTICULAR PURPOSE.  See the
   GNU Lesser General Public License for more details.
   
   Cite this work as:
   * C. Bannwarth, E. Caldeweyher, S. Ehlert, A. Hansen, P. Pracht,
     J. Seibert, S. Spicher, S. Grimme, WIREs Comput. Mol. Sci., 2020, 11,
     e01493. DOI: 10.1002/wcms.1493
   
   for GFN2-xTB:
   * C. Bannwarth, S. Ehlert and S. Grimme., J. Chem. Theory Comput., 2019,
     15, 1652-1671. DOI: 10.1021/acs.jctc.8b01176
   for GFN1-xTB:
   * S. Grimme, C. Bannwarth, P. Shushkov, J. Chem. Theory Comput., 2017,
     13, 1989-2009. DOI: 10.1021/acs.jctc.7b00118
   for GFN0-xTB:
   * P. Pracht, E. Caldeweyher, S. Ehlert, S. Grimme, ChemRxiv, 2019, preprint.
     DOI: 10.26434/chemrxiv.8326202.v1
   for GFN-FF:
   * S. Spicher and S. Grimme, Angew. Chem. Int. Ed., 2020, 59, 15665-15673.
     DOI: 10.1002/anie.202004239
   
   for ALPB and GBSA implicit solvation:
   * S. Ehlert, M. Stahn, S. Spicher, S. Grimme, J. Chem. Theory Comput.,
     2021, 17, 4250-4261. DOI: 10.1021/acs.jctc.1c00471
   
   for ddCOSMO and CPCM-X implicit solvation:
   * M. Stahn, S. Ehlert, S. Grimme, J. Phys. Chem. A,
     2023, XX, XXXX-XXXX. DOI: 10.1021/acs.jpca.3c04382
   
   for DFT-D4:
   * E. Caldeweyher, C. Bannwarth and S. Grimme, J. Chem. Phys., 2017,
     147, 034112. DOI: 10.1063/1.4993215
   * E. Caldeweyher, S. Ehlert, A. Hansen, H. Neugebauer, S. Spicher,
     C. Bannwarth and S. Grimme, J. Chem. Phys., 2019, 150, 154122.
     DOI: 10.1063/1.5090222
   * E. Caldeweyher, J.-M. Mewes, S. Ehlert and S. Grimme, Phys. Chem. Chem. Phys.
     2020, 22, 8499-8512. DOI: 10.1039/D0CP00502A
   
   for sTDA-xTB:
   * S. Grimme and C. Bannwarth, J. Chem. Phys., 2016, 145, 054103.
     DOI: 10.1063/1.4959605
   
   in the mass-spec context:
   * V. Asgeirsson, C. Bauer and S. Grimme, Chem. Sci., 2017, 8, 4879.
     DOI: 10.1039/c7sc00601b
   * J. Koopman and S. Grimme, ACS Omega 2019, 4, 12, 15120-15133.
     DOI: 10.1021/acsomega.9b02011
   
   for metadynamics refer to:
   * S. Grimme, J. Chem. Theory Comput., 2019, 155, 2847-2862
     DOI: 10.1021/acs.jctc.9b00143
   
   for SPH calculations refer to:
   * S. Spicher and S. Grimme, J. Chem. Theory Comput., 2021, 17, 1701-1714
     DOI: 10.1021/acs.jctc.0c01306
   
   for ONIOM refer to:
   * C. Plett, A. Katbashev, S. Ehlert, S. Grimme, M. Bursch,
     Phys. Chem. Chem. Phys., 2023, 25, 17860-17868. DOI: 10.1039/D3CP02178E
   
   for DIPRO refer to:
   * J. Kohn, N. Gildemeister, S. Grimme, D. Fazzi, A. Hansen,
     J. Chem. Phys., 2023, just accepted.
   
   for PTB refer to:
   * S. Grimme, M. Mueller, A. Hansen, J. Chem. Phys., 2023, 158, 124111.
     DOI: 10.1063/5.0137838
   
   with help from (in alphabetical order)
   P. Atkinson, C. Bannwarth, F. Bohle, G. Brandenburg, E. Caldeweyher
   M. Checinski, S. Dohm, S. Ehlert, S. Ehrlich, I. Gerasimov, C. Hölzer
   A. Katbashev, J. Kohn, J. Koopman, C. Lavigne, S. Lehtola, F. März, M. Müller,
   F. Musil, H. Neugebauer, J. Pisarek, C. Plett, P. Pracht, F. Pultar,
   J. Seibert, P. Shushkov, S. Spicher, M. Stahn, M. Steiner, T. Strunk,
   J. Stückrath, T. Rose, and J. Unsleber
   
 * started run on 2025/05/15 at 16:06:56.829     
   ID    Z sym.   atoms
    1    6 C      1-8, 10, 11, 13-16
    2    7 N      9, 12
    3    8 O      17
    4    1 H      18-39

           -------------------------------------------------
          |                Calculation Setup                |
           -------------------------------------------------

          program call               : xtb /rds/general/user/hgt20/home/callum/QDESCP/Lidocaine_rdkit_conf_13/Lidocaine_rdkit_conf_13.xyz --opt normal --acc 1 --gfn 2 --chrg 0 --uhf 0 -P 1
          hostname                   : login-c
          coordinate file            : /rds/general/user/hgt20/home/callum/QDESCP/Lidocaine_rdkit_conf_13/Lidocaine_rdkit_conf_13.xyz
          omp threads                :                     1


           -------------------------------------------------
          |                 G F N 2 - x T B                 |
           -------------------------------------------------

        Reference                      10.1021/acs.jctc.8b01176
      * Hamiltonian:
        H0-scaling (s, p, d)           1.850000    2.230000    2.230000
        zeta-weighting                 0.500000
      * Dispersion:
        s8                             2.700000
        a1                             0.520000
        a2                             5.000000
        s9                             5.000000
      * Repulsion:
        kExp                           1.500000    1.000000
        rExp                           1.000000
      * Coulomb:
        alpha                          2.000000
        third order                    shell-resolved
        anisotropic                    true
        a3                             3.000000
        a5                             4.000000
        cn-shift                       1.200000
        cn-exp                         4.000000
        max-rad                        5.000000


          ...................................................
          :                      SETUP                      :
          :.................................................:
          :  # basis functions                  90          :
          :  # atomic orbitals                  90          :
          :  # shells                           56          :
          :  # electrons                        94          :
          :  max. iterations                   250          :
          :  Hamiltonian                  GFN2-xTB          :
          :  restarted?                      false          :
          :  GBSA solvation                  false          :
          :  PC potential                    false          :
          :  electronic temp.          300.0000000     K    :
          :  accuracy                    1.0000000          :
          :  -> integral cutoff          0.2500000E+02      :
          :  -> integral neglect         0.1000000E-07      :
          :  -> SCF convergence          0.1000000E-05 Eh   :
          :  -> wf. convergence          0.1000000E-03 e    :
          :  Broyden damping             0.4000000          :
          :  net charge                          0          :
          :  unpaired electrons                  0          :
          ...................................................

 iter      E             dE          RMSdq      gap      omega  full diag
   1    -51.7344778 -0.517345E+02  0.331E+00    3.53       0.0  T
   2    -51.8226057 -0.881279E-01  0.187E+00    3.76       1.0  T
   3    -51.8256867 -0.308099E-02  0.943E-01    3.75       1.0  T
   4    -51.8275243 -0.183762E-02  0.228E-01    3.64       1.0  T
   5    -51.8290588 -0.153447E-02  0.887E-02    3.69       1.0  T
   6    -51.8292158 -0.157077E-03  0.427E-02    3.70       1.0  T
   7    -51.8292348 -0.189163E-04  0.196E-02    3.69       1.0  T
   8    -51.8292399 -0.510082E-05  0.494E-03    3.69       3.2  T
   9    -51.8292400 -0.104404E-06  0.224E-03    3.69       7.2  T
  10    -51.8292401 -0.847742E-07  0.106E-03    3.69      15.1  T
  11    -51.8292401 -0.638654E-08  0.391E-04    3.69      40.9  T
  12    -51.8292401 -0.756124E-09  0.102E-04    3.69     157.2  T

   *** convergence criteria satisfied after 12 iterations ***

         #    Occupation            Energy/Eh            Energy/eV
      -------------------------------------------------------------
         1        2.0000           -0.6902326             -18.7822
       ...           ...                  ...                  ...
        41        2.0000           -0.4322002             -11.7608
        42        2.0000           -0.4196290             -11.4187
        43        2.0000           -0.4184095             -11.3855
        44        2.0000           -0.3915638             -10.6550
        45        2.0000           -0.3812917             -10.3755
        46        2.0000           -0.3728396             -10.1455
        47        2.0000           -0.3665560              -9.9745 (HOMO)
        48                         -0.2308680              -6.2822 (LUMO)
        49                         -0.2168344              -5.9004
        50                         -0.1904899              -5.1835
        51                         -0.0922523              -2.5103
        52                         -0.0218293              -0.5940
       ...                                ...                  ...
        90                          0.6405832              17.4312
      -------------------------------------------------------------
                  HL-Gap            0.1356880 Eh            3.6923 eV
             Fermi-level           -0.2987120 Eh           -8.1284 eV

 SCC (total)                   0 d,  0 h,  0 min,  0.066 sec
 SCC setup                      ...        0 min,  0.000 sec (  0.459%)
 Dispersion                     ...        0 min,  0.000 sec (  0.606%)
 classical contributions        ...        0 min,  0.000 sec (  0.189%)
 integral evaluation            ...        0 min,  0.006 sec (  8.909%)
 iterations                     ...        0 min,  0.041 sec ( 63.095%)
 molecular gradient             ...        0 min,  0.017 sec ( 26.530%)
 printout                       ...        0 min,  0.000 sec (  0.201%)

         :::::::::::::::::::::::::::::::::::::::::::::::::::::
         ::                     SUMMARY                     ::
         :::::::::::::::::::::::::::::::::::::::::::::::::::::
         :: total energy             -51.119527263393 Eh    ::
         :: gradient norm              0.063286486838 Eh/a0 ::
         :: HOMO-LUMO gap              3.692257555628 eV    ::
         ::.................................................::
         :: SCC energy               -51.828648659737 Eh    ::
         :: -> isotropic ES            0.046799455537 Eh    ::
         :: -> anisotropic ES          0.008727913239 Eh    ::
         :: -> anisotropic XC          0.029398082575 Eh    ::
         :: -> dispersion             -0.036430088550 Eh    ::
         :: repulsion energy           0.709121396344 Eh    ::
         :: add. restraining           0.000000000000 Eh    ::
         :: total charge              -0.000000000000 e     ::
         :::::::::::::::::::::::::::::::::::::::::::::::::::::

      ----------------------------------------------------------- 
     |                   =====================                   |
     |                        A N C O P T                        |
     |                   =====================                   |
     |               Approximate Normal Coordinate               |
     |                Rational Function Optimizer                |
      ----------------------------------------------------------- 
      ----------------------------------------------------------- 
     |                   =====================                   |
     |                        A N C O P T                        |
     |                   =====================                   |
     |               Approximate Normal Coordinate               |
     |                Rational Function Optimizer                |
      ----------------------------------------------------------- 

          ...................................................
          :                      SETUP                      :
          :.................................................:
          :   optimization level            normal          :
          :   max. optcycles                   200          :
          :   ANC micro-cycles                  20          :
          :   degrees of freedom               111          :
          :.................................................:
          :   RF solver                   davidson          :
          :   write xtbopt.log                true          :
          :   linear?                        false          :
          :   energy convergence         0.5000000E-05 Eh   :
          :   grad. convergence          0.1000000E-02 Eh/α :
          :   maxmium RF displ.          1.0000000          :
          :   Hlow (freq-cutoff)         0.1000000E-01      :
          :   Hmax (freq-cutoff)         5.0000000          :
          :   S6 in model hess.         20.0000000          :
          ...................................................

generating ANC from exact Hessian ...
Using Lindh-Hessian (1995)
 Shifting diagonal of input Hessian by    9.6979612153174390E-003
 Lowest  eigenvalues of input Hessian
    0.000000    0.000000    0.000000    0.000000    0.000000    0.000000
    0.010000    0.010085    0.010369    0.011095    0.011994    0.012750
    0.013475    0.015045    0.015162    0.015285    0.016538    0.017478
 Highest eigenvalues
    1.555559    1.801577    1.828302    1.933125    2.019562    2.254478


........................................................................
.............................. CYCLE    1 ..............................
........................................................................

 iter      E             dE          RMSdq      gap      omega  full diag
   1    -51.8292401 -0.518292E+02  0.536E-05    3.69       0.0  T
   2    -51.8292401 -0.177138E-10  0.308E-05    3.69     520.4  T
   3    -51.8292401 -0.967759E-11  0.202E-05    3.69     793.8  T
     SCC iter.                  ...        0 min,  0.005 sec
     gradient                   ...        0 min,  0.018 sec
 * total energy  :   -51.1195273 Eh     change       -0.1644480E-09 Eh
   gradient norm :     0.0632864 Eh/α   predicted     0.0000000E+00 (-100.00%)
   displ. norm   :     0.2864873 α      lambda       -0.9410544E-02
   maximum displ.:     0.0960837 α      in ANC's #11, #35, #29, ...

........................................................................
.............................. CYCLE    2 ..............................
........................................................................

 iter      E             dE          RMSdq      gap      omega  full diag
   1    -51.8687068 -0.518687E+02  0.173E-01    3.75       0.0  T
   2    -51.8687481 -0.413064E-04  0.104E-01    3.74       1.0  T
   3    -51.8687376  0.104615E-04  0.285E-02    3.74       1.0  T
   4    -51.8687555 -0.179185E-04  0.458E-03    3.73       3.5  T
   5    -51.8687557 -0.179167E-06  0.258E-03    3.73       6.2  T
   6    -51.8687557 -0.247598E-07  0.117E-03    3.73      13.6  T
   7    -51.8687558 -0.386844E-07  0.406E-04    3.73      39.5  T
   8    -51.8687558 -0.138193E-08  0.152E-04    3.73     105.2  T
     SCC iter.                  ...        0 min,  0.037 sec
     gradient                   ...        0 min,  0.017 sec
 * total energy  :   -51.1257874 Eh     change       -0.6260109E-02 Eh
   gradient norm :     0.0228471 Eh/α   predicted    -0.5091779E-02 ( -18.66%)
   displ. norm   :     0.2971113 α      lambda       -0.2530343E-02
   maximum displ.:     0.1594893 α      in ANC's #11, #9, #8, ...

........................................................................
.............................. CYCLE    3 ..............................
........................................................................

 iter      E             dE          RMSdq      gap      omega  full diag
   1    -51.8855253 -0.518855E+02  0.107E-01    3.73       0.0  T
   2    -51.8855508 -0.254805E-04  0.631E-02    3.74       1.0  T
   3    -51.8855475  0.323823E-05  0.199E-02    3.74       1.0  T
   4    -51.8855530 -0.546273E-05  0.493E-03    3.74       3.2  T
   5    -51.8855537 -0.769454E-06  0.179E-03    3.74       8.9  T
   6    -51.8855538 -0.263218E-07  0.822E-04    3.74      19.5  T
   7    -51.8855538 -0.612349E-08  0.252E-04    3.74      63.4  T
     SCC iter.                  ...        0 min,  0.010 sec
     gradient                   ...        0 min,  0.017 sec
 * total energy  :   -51.1274414 Eh     change       -0.1654016E-02 Eh
   gradient norm :     0.0086941 Eh/α   predicted    -0.1377801E-02 ( -16.70%)
   displ. norm   :     0.3066512 α      lambda       -0.9993968E-03
   maximum displ.:     0.1659352 α      in ANC's #11, #1, #9, ...

........................................................................
.............................. CYCLE    4 ..............................
........................................................................

 iter      E             dE          RMSdq      gap      omega  full diag
   1    -51.8881047 -0.518881E+02  0.873E-02    3.73       0.0  T
   2    -51.8881178 -0.131489E-04  0.503E-02    3.73       1.0  T
   3    -51.8881148  0.298192E-05  0.159E-02    3.73       1.0  T
   4    -51.8881192 -0.436387E-05  0.415E-03    3.73       3.9  T
   5    -51.8881197 -0.505656E-06  0.135E-03    3.73      11.8  T
   6    -51.8881197 -0.105577E-07  0.492E-04    3.73      32.5  T
   7    -51.8881197 -0.100619E-08  0.213E-04    3.73      75.1  T
     SCC iter.                  ...        0 min,  0.010 sec
     gradient                   ...        0 min,  0.033 sec
 * total energy  :   -51.1282129 Eh     change       -0.7715148E-03 Eh
   gradient norm :     0.0088162 Eh/α   predicted    -0.5466894E-03 ( -29.14%)
   displ. norm   :     0.4362490 α      lambda       -0.1011383E-02
   maximum displ.:     0.2154957 α      in ANC's #11, #1, #4, ...

........................................................................
.............................. CYCLE    5 ..............................
........................................................................

 iter      E             dE          RMSdq      gap      omega  full diag
   1    -51.8857336 -0.518857E+02  0.116E-01    3.73       0.0  T
   2    -51.8857448 -0.111490E-04  0.676E-02    3.73       1.0  T
   3    -51.8857361  0.867097E-05  0.200E-02    3.73       1.0  T
   4    -51.8857474 -0.113235E-04  0.389E-03    3.73       4.1  T
   5    -51.8857477 -0.295760E-06  0.162E-03    3.73       9.9  T
   6    -51.8857478 -0.134841E-07  0.616E-04    3.73      26.0  T
   7    -51.8857478 -0.158496E-08  0.274E-04    3.73      58.5  T
     SCC iter.                  ...        0 min,  0.010 sec
     gradient                   ...        0 min,  0.018 sec
 * total energy  :   -51.1289349 Eh     change       -0.7220236E-03 Eh
   gradient norm :     0.0112824 Eh/α   predicted    -0.6019347E-03 ( -16.63%)
   displ. norm   :     0.3520814 α      lambda       -0.5945410E-03
   maximum displ.:     0.1695805 α      in ANC's #1, #11, #2, ...

........................................................................
.............................. CYCLE    6 ..............................
........................................................................

 iter      E             dE          RMSdq      gap      omega  full diag
   1    -51.8842636 -0.518843E+02  0.828E-02    3.75       0.0  T
   2    -51.8842668 -0.326469E-05  0.484E-02    3.74       1.0  T
   3    -51.8842620  0.477867E-05  0.137E-02    3.74       1.2  T
   4    -51.8842680 -0.599154E-05  0.210E-03    3.74       7.6  T
   5    -51.8842681 -0.535039E-07  0.102E-03    3.74      15.7  T
   6    -51.8842681 -0.377162E-08  0.412E-04    3.74      38.8  T
   7    -51.8842681 -0.193077E-08  0.154E-04    3.74     104.1  T
     SCC iter.                  ...        0 min,  0.010 sec
     gradient                   ...        0 min,  0.045 sec
 * total energy  :   -51.1293669 Eh     change       -0.4319247E-03 Eh
   gradient norm :     0.0089278 Eh/α   predicted    -0.3341226E-03 ( -22.64%)
   displ. norm   :     0.2979369 α      lambda       -0.4223432E-03
   maximum displ.:     0.1710982 α      in ANC's #1, #2, #11, ...

........................................................................
.............................. CYCLE    7 ..............................
........................................................................

 iter      E             dE          RMSdq      gap      omega  full diag
   1    -51.8848934 -0.518849E+02  0.638E-02    3.77       0.0  T
   2    -51.8848961 -0.264886E-05  0.374E-02    3.76       1.0  T
   3    -51.8848942  0.188542E-05  0.916E-03    3.77       1.7  T
   4    -51.8848966 -0.239361E-05  0.191E-03    3.77       8.4  T
   5    -51.8848966 -0.829900E-07  0.787E-04    3.77      20.3  T
   6    -51.8848966 -0.256048E-08  0.341E-04    3.77      47.0  T
     SCC iter.                  ...        0 min,  0.008 sec
     gradient                   ...        0 min,  0.018 sec
 * total energy  :   -51.1296832 Eh     change       -0.3163167E-03 Eh
   gradient norm :     0.0058343 Eh/α   predicted    -0.2299225E-03 ( -27.31%)
   displ. norm   :     0.3032632 α      lambda       -0.3199724E-03
   maximum displ.:     0.1814944 α      in ANC's #1, #2, #14, ...

........................................................................
.............................. CYCLE    8 ..............................
........................................................................

 iter      E             dE          RMSdq      gap      omega  full diag
   1    -51.8859482 -0.518859E+02  0.595E-02    3.79       0.0  T
   2    -51.8859501 -0.186761E-05  0.350E-02    3.78       1.0  T
   3    -51.8859488  0.128892E-05  0.693E-03    3.79       2.3  T
   4    -51.8859504 -0.160960E-05  0.164E-03    3.79       9.8  T
   5    -51.8859505 -0.760011E-07  0.691E-04    3.79      23.2  T
   6    -51.8859505 -0.181042E-08  0.258E-04    3.79      62.2  T
     SCC iter.                  ...        0 min,  0.008 sec
     gradient                   ...        0 min,  0.051 sec
 * total energy  :   -51.1299271 Eh     change       -0.2438973E-03 Eh
   gradient norm :     0.0049413 Eh/α   predicted    -0.1747003E-03 ( -28.37%)
   displ. norm   :     0.2992443 α      lambda       -0.2505810E-03
   maximum displ.:     0.1822633 α      in ANC's #1, #2, #13, ...

........................................................................
.............................. CYCLE    9 ..............................
........................................................................

 iter      E             dE          RMSdq      gap      omega  full diag
   1    -51.8874347 -0.518874E+02  0.532E-02    3.80       0.0  T
   2    -51.8874357 -0.101090E-05  0.313E-02    3.80       1.0  T
   3    -51.8874348  0.930829E-06  0.510E-03    3.80       3.1  T
   4    -51.8874359 -0.114357E-05  0.126E-03    3.80      12.7  T
   5    -51.8874360 -0.470501E-07  0.569E-04    3.80      28.1  T
   6    -51.8874360 -0.876312E-09  0.175E-04    3.80      91.6  T
     SCC iter.                  ...        0 min,  0.009 sec
     gradient                   ...        0 min,  0.018 sec
 * total energy  :   -51.1301204 Eh     change       -0.1933438E-03 Eh
   gradient norm :     0.0049340 Eh/α   predicted    -0.1365108E-03 ( -29.39%)
   displ. norm   :     0.3221581 α      lambda       -0.2157922E-03
   maximum displ.:     0.1924492 α      in ANC's #1, #2, #5, ...

........................................................................
.............................. CYCLE   10 ..............................
........................................................................

 iter      E             dE          RMSdq      gap      omega  full diag
   1    -51.8878101 -0.518878E+02  0.534E-02    3.80       0.0  T
   2    -51.8878107 -0.568462E-06  0.314E-02    3.80       1.0  T
   3    -51.8878101  0.573177E-06  0.397E-03    3.80       4.0  T
   4    -51.8878109 -0.740226E-06  0.105E-03    3.80      15.2  T
   5    -51.8878109 -0.217125E-07  0.508E-04    3.80      31.5  T
   6    -51.8878109 -0.502311E-09  0.122E-04    3.80     131.6  T
     SCC iter.                  ...        0 min,  0.009 sec
     gradient                   ...        0 min,  0.018 sec
 * total energy  :   -51.1302913 Eh     change       -0.1709200E-03 Eh
   gradient norm :     0.0045553 Eh/α   predicted    -0.1190965E-03 ( -30.32%)
   displ. norm   :     0.3515083 α      lambda       -0.2283138E-03
   maximum displ.:     0.2072777 α      in ANC's #1, #2, #5, ...

........................................................................
.............................. CYCLE   11 ..............................
........................................................................

 iter      E             dE          RMSdq      gap      omega  full diag
   1    -51.8895492 -0.518895E+02  0.564E-02    3.79       0.0  T
   2    -51.8895503 -0.113938E-05  0.331E-02    3.79       1.0  T
   3    -51.8895500  0.358874E-06  0.439E-03    3.79       3.6  T
   4    -51.8895505 -0.539882E-06  0.131E-03    3.79      12.3  T
   5    -51.8895505 -0.316067E-07  0.597E-04    3.79      26.8  T
   6    -51.8895505 -0.168121E-08  0.223E-04    3.79      71.9  T
     SCC iter.                  ...        0 min,  0.009 sec
     gradient                   ...        0 min,  0.018 sec
 * total energy  :   -51.1304613 Eh     change       -0.1699880E-03 Eh
   gradient norm :     0.0061160 Eh/α   predicted    -0.1282623E-03 ( -24.55%)
   displ. norm   :     0.4194803 α      lambda       -0.2262769E-03
   maximum displ.:     0.2437345 α      in ANC's #1, #2, #5, ...

........................................................................
.............................. CYCLE   12 ..............................
........................................................................

 iter      E             dE          RMSdq      gap      omega  full diag
   1    -51.8868512 -0.518869E+02  0.703E-02    3.76       0.0  T
   2    -51.8868536 -0.241090E-05  0.411E-02    3.77       1.0  T
   3    -51.8868531  0.480505E-06  0.568E-03    3.77       2.8  T
   4    -51.8868539 -0.834139E-06  0.164E-03    3.77       9.8  T
   5    -51.8868540 -0.535059E-07  0.858E-04    3.77      18.7  T
   6    -51.8868540 -0.682681E-08  0.232E-04    3.77      69.0  T
     SCC iter.                  ...        0 min,  0.009 sec
     gradient                   ...        0 min,  0.018 sec
 * total energy  :   -51.1305997 Eh     change       -0.1383720E-03 Eh
   gradient norm :     0.0052289 Eh/α   predicted    -0.1330489E-03 (  -3.85%)
   displ. norm   :     0.2782176 α      lambda       -0.1796072E-03
   maximum displ.:     0.1601922 α      in ANC's #1, #2, #5, ...

........................................................................
.............................. CYCLE   13 ..............................
........................................................................

 iter      E             dE          RMSdq      gap      omega  full diag
   1    -51.8888883 -0.518889E+02  0.530E-02    3.75       0.0  T
   2    -51.8888897 -0.143523E-05  0.309E-02    3.75       1.0  T
   3    -51.8888896  0.846690E-07  0.350E-03    3.75       4.6  T
   4    -51.8888899 -0.260828E-06  0.128E-03    3.75      12.5  T
   5    -51.8888899 -0.364304E-07  0.660E-04    3.75      24.2  T
   6    -51.8888899 -0.512716E-08  0.249E-04    3.75      64.3  T
     SCC iter.                  ...        0 min,  0.039 sec
     gradient                   ...        0 min,  0.018 sec
 * total energy  :   -51.1307171 Eh     change       -0.1174083E-03 Eh
   gradient norm :     0.0048396 Eh/α   predicted    -0.9675542E-04 ( -17.59%)
   displ. norm   :     0.2291516 α      lambda       -0.1016278E-03
   maximum displ.:     0.1367889 α      in ANC's #1, #2, #6, ...

........................................................................
.............................. CYCLE   14 ..............................
........................................................................

 iter      E             dE          RMSdq      gap      omega  full diag
   1    -51.8890097 -0.518890E+02  0.441E-02    3.74       0.0  T
   2    -51.8890105 -0.739955E-06  0.258E-02    3.74       1.0  T
   3    -51.8890104  0.101568E-06  0.332E-03    3.74       4.8  T
   4    -51.8890106 -0.242915E-06  0.984E-04    3.74      16.3  T
   5    -51.8890106 -0.114935E-07  0.545E-04    3.74      29.4  T
     SCC iter.                  ...        0 min,  0.007 sec
     gradient                   ...        0 min,  0.018 sec
 * total energy  :   -51.1307936 Eh     change       -0.7648691E-04 Eh
   gradient norm :     0.0038931 Eh/α   predicted    -0.5348336E-04 ( -30.08%)
   displ. norm   :     0.2371930 α      lambda       -0.1275651E-03
   maximum displ.:     0.1508728 α      in ANC's #1, #2, #6, ...

........................................................................
.............................. CYCLE   15 ..............................
........................................................................

 iter      E             dE          RMSdq      gap      omega  full diag
   1    -51.8895115 -0.518895E+02  0.481E-02    3.73       0.0  T
   2    -51.8895148 -0.332373E-05  0.279E-02    3.73       1.0  T
   3    -51.8895146  0.268266E-06  0.698E-03    3.73       2.3  T
   4    -51.8895151 -0.528088E-06  0.196E-03    3.73       8.2  T
   5    -51.8895152 -0.901052E-07  0.715E-04    3.73      22.4  T
   6    -51.8895152 -0.210449E-08  0.237E-04    3.73      67.7  T
     SCC iter.                  ...        0 min,  0.038 sec
     gradient                   ...        0 min,  0.018 sec
 * total energy  :   -51.1308808 Eh     change       -0.8721794E-04 Eh
   gradient norm :     0.0039136 Eh/α   predicted    -0.6737345E-04 ( -22.75%)
   displ. norm   :     0.2191856 α      lambda       -0.1030272E-03
   maximum displ.:     0.1402965 α      in ANC's #1, #2, #6, ...

........................................................................
.............................. CYCLE   16 ..............................
........................................................................

 iter      E             dE          RMSdq      gap      omega  full diag
   1    -51.8889752 -0.518890E+02  0.420E-02    3.73       0.0  T
   2    -51.8889757 -0.473686E-06  0.247E-02    3.73       1.0  T
   3    -51.8889754  0.260114E-06  0.384E-03    3.73       4.2  T
   4    -51.8889758 -0.414469E-06  0.102E-03    3.73      15.8  T
   5    -51.8889758 -0.852572E-08  0.525E-04    3.73      30.5  T
   6    -51.8889758 -0.122588E-08  0.182E-04    3.73      88.1  T
     SCC iter.                  ...        0 min,  0.008 sec
     gradient                   ...        0 min,  0.018 sec
 * total energy  :   -51.1309610 Eh     change       -0.8022214E-04 Eh
   gradient norm :     0.0043451 Eh/α   predicted    -0.5399074E-04 ( -32.70%)
   displ. norm   :     0.2395030 α      lambda       -0.1158318E-03
   maximum displ.:     0.1498143 α      in ANC's #1, #2, #5, ...

........................................................................
.............................. CYCLE   17 ..............................
........................................................................

 iter      E             dE          RMSdq      gap      omega  full diag
   1    -51.8889834 -0.518890E+02  0.436E-02    3.73       0.0  T
   2    -51.8889838 -0.414617E-06  0.256E-02    3.73       1.0  T
   3    -51.8889837  0.137367E-06  0.280E-03    3.73       5.7  T
   4    -51.8889839 -0.269182E-06  0.104E-03    3.73      15.4  T
   5    -51.8889840 -0.148543E-07  0.496E-04    3.73      32.3  T
   6    -51.8889840 -0.155341E-08  0.156E-04    3.73     102.7  T
     SCC iter.                  ...        0 min,  0.008 sec
     gradient                   ...        0 min,  0.045 sec
 * total energy  :   -51.1310568 Eh     change       -0.9579903E-04 Eh
   gradient norm :     0.0047447 Eh/α   predicted    -0.6123910E-04 ( -36.08%)
   displ. norm   :     0.2927206 α      lambda       -0.1368261E-03
   maximum displ.:     0.1846541 α      in ANC's #1, #2, #5, ...

........................................................................
.............................. CYCLE   18 ..............................
........................................................................

 iter      E             dE          RMSdq      gap      omega  full diag
   1    -51.8887178 -0.518887E+02  0.521E-02    3.74       0.0  T
   2    -51.8887187 -0.887041E-06  0.304E-02    3.74       1.0  T
   3    -51.8887185  0.268722E-06  0.384E-03    3.74       4.2  T
   4    -51.8887189 -0.436071E-06  0.131E-03    3.74      12.2  T
   5    -51.8887189 -0.416755E-07  0.634E-04    3.74      25.2  T
   6    -51.8887189 -0.210969E-08  0.155E-04    3.74     103.1  T
     SCC iter.                  ...        0 min,  0.008 sec
     gradient                   ...        0 min,  0.018 sec
 * total energy  :   -51.1311647 Eh     change       -0.1079253E-03 Eh
   gradient norm :     0.0040327 Eh/α   predicted    -0.7427748E-04 ( -31.18%)
   displ. norm   :     0.2962835 α      lambda       -0.1144604E-03
   maximum displ.:     0.1921747 α      in ANC's #1, #2, #5, ...

........................................................................
.............................. CYCLE   19 ..............................
........................................................................

 iter      E             dE          RMSdq      gap      omega  full diag
   1    -51.8890142 -0.518890E+02  0.544E-02    3.74       0.0  T
   2    -51.8890151 -0.909936E-06  0.317E-02    3.74       1.0  T
   3    -51.8890147  0.440679E-06  0.479E-03    3.74       3.3  T
   4    -51.8890153 -0.643911E-06  0.135E-03    3.74      11.8  T
   5    -51.8890153 -0.358981E-07  0.619E-04    3.74      25.9  T
   6    -51.8890153 -0.106791E-08  0.170E-04    3.74      94.1  T
     SCC iter.                  ...        0 min,  0.008 sec
     gradient                   ...        0 min,  0.045 sec
 * total energy  :   -51.1312518 Eh     change       -0.8707720E-04 Eh
   gradient norm :     0.0035971 Eh/α   predicted    -0.6225748E-04 ( -28.50%)
   displ. norm   :     0.2787815 α      lambda       -0.9265300E-04
   maximum displ.:     0.1898396 α      in ANC's #1, #2, #5, ...

........................................................................
.............................. CYCLE   20 ..............................
........................................................................

 iter      E             dE          RMSdq      gap      omega  full diag
   1    -51.8883418 -0.518883E+02  0.508E-02    3.73       0.0  T
   2    -51.8883427 -0.857830E-06  0.296E-02    3.74       1.0  T
   3    -51.8883421  0.540434E-06  0.517E-03    3.74       3.1  T
   4    -51.8883429 -0.745196E-06  0.120E-03    3.74      13.3  T
   5    -51.8883429 -0.229404E-07  0.540E-04    3.74      29.6  T
   6    -51.8883429 -0.610832E-09  0.188E-04    3.74      85.2  T
     SCC iter.                  ...        0 min,  0.008 sec
     gradient                   ...        0 min,  0.018 sec
 * total energy  :   -51.1313202 Eh     change       -0.6833559E-04 Eh
   gradient norm :     0.0035715 Eh/α   predicted    -0.4992806E-04 ( -26.94%)
   displ. norm   :     0.2686132 α      lambda       -0.9153866E-04
   maximum displ.:     0.1887787 α      in ANC's #1, #2, #11, ...
 * RMSD in coord.:     0.7547199 α      energy gain  -0.1179290E-01 Eh

generating ANC from exact Hessian ...
Using Lindh-Hessian (1995)
 Shifting diagonal of input Hessian by    9.5986635015706256E-003
 Lowest  eigenvalues of input Hessian
    0.000000    0.000000    0.000000    0.000000    0.000000    0.000000
    0.010000    0.010031    0.010390    0.011177    0.011976    0.012912
    0.013389    0.015539    0.015601    0.015890    0.017388    0.018096
 Highest eigenvalues
    1.628754    1.885041    1.916179    2.015609    2.119887    2.371783


........................................................................
.............................. CYCLE   21 ..............................
........................................................................

 iter      E             dE          RMSdq      gap      omega  full diag
   1    -51.8894902 -0.518895E+02  0.498E-02    3.73       0.0  T
   2    -51.8894910 -0.778329E-06  0.291E-02    3.73       1.0  T
   3    -51.8894906  0.416585E-06  0.489E-03    3.73       3.3  T
   4    -51.8894912 -0.626841E-06  0.115E-03    3.73      14.0  T
   5    -51.8894912 -0.138231E-07  0.553E-04    3.73      28.9  T
   6    -51.8894912 -0.882302E-09  0.194E-04    3.73      82.7  T
     SCC iter.                  ...        0 min,  0.008 sec
     gradient                   ...        0 min,  0.045 sec
 * total energy  :   -51.1313815 Eh     change       -0.6137173E-04 Eh
   gradient norm :     0.0035070 Eh/α   predicted     0.0000000E+00 (-100.00%)
   displ. norm   :     0.0349547 α      lambda       -0.3151562E-04
   maximum displ.:     0.0223591 α      in ANC's #1, #5, #7, ...

........................................................................
.............................. CYCLE   22 ..............................
........................................................................

 iter      E             dE          RMSdq      gap      omega  full diag
   1    -51.8897399 -0.518897E+02  0.887E-03    3.73       0.0  T
   2    -51.8897400 -0.110990E-06  0.515E-03    3.73       3.1  T
   3    -51.8897400  0.466963E-07  0.189E-03    3.73       8.5  T
   4    -51.8897401 -0.725823E-07  0.381E-04    3.73      42.1  T
   5    -51.8897401 -0.223850E-08  0.176E-04    3.73      91.0  T
     SCC iter.                  ...        0 min,  0.007 sec
     gradient                   ...        0 min,  0.018 sec
 * total energy  :   -51.1314079 Eh     change       -0.2638208E-04 Eh
   gradient norm :     0.0016968 Eh/α   predicted    -0.1643953E-04 ( -37.69%)
   displ. norm   :     0.1294461 α      lambda       -0.4545225E-04
   maximum displ.:     0.0854887 α      in ANC's #1, #5, #7, ...

........................................................................
.............................. CYCLE   23 ..............................
........................................................................

 iter      E             dE          RMSdq      gap      omega  full diag
   1    -51.8900188 -0.518900E+02  0.260E-02    3.72       0.0  T
   2    -51.8900195 -0.763593E-06  0.152E-02    3.72       1.1  T
   3    -51.8900191  0.396204E-06  0.515E-03    3.72       3.1  T
   4    -51.8900197 -0.563035E-06  0.106E-03    3.72      15.1  T
   5    -51.8900197 -0.209974E-07  0.428E-04    3.72      37.4  T
   6    -51.8900197 -0.758490E-09  0.174E-04    3.72      91.9  T
     SCC iter.                  ...        0 min,  0.008 sec
     gradient                   ...        0 min,  0.045 sec
 * total energy  :   -51.1314431 Eh     change       -0.3522261E-04 Eh
   gradient norm :     0.0029379 Eh/α   predicted    -0.2289559E-04 ( -35.00%)
   displ. norm   :     0.0412002 α      lambda       -0.1573559E-04
   maximum displ.:     0.0312459 α      in ANC's #1, #5, #13, ...

........................................................................
.............................. CYCLE   24 ..............................
........................................................................

 iter      E             dE          RMSdq      gap      omega  full diag
   1    -51.8900019 -0.518900E+02  0.732E-03    3.72       0.0  T
   2    -51.8900019 -0.167994E-07  0.430E-03    3.72       3.7  T
   3    -51.8900019 -0.484327E-09  0.364E-04    3.72      44.0  T
   4    -51.8900019 -0.233172E-08  0.160E-04    3.72     100.1  T
     SCC iter.                  ...        0 min,  0.006 sec
     gradient                   ...        0 min,  0.018 sec
 * total energy  :   -51.1314578 Eh     change       -0.1464013E-04 Eh
   gradient norm :     0.0024154 Eh/α   predicted    -0.7882049E-05 ( -46.16%)
   displ. norm   :     0.1051513 α      lambda       -0.4073065E-04
   maximum displ.:     0.0754021 α      in ANC's #1, #5, #14, ...

........................................................................
.............................. CYCLE   25 ..............................
........................................................................

 iter      E             dE          RMSdq      gap      omega  full diag
   1    -51.8899383 -0.518899E+02  0.182E-02    3.71       0.0  T
   2    -51.8899384 -0.940622E-07  0.107E-02    3.71       1.5  T
   3    -51.8899384 -0.673453E-08  0.851E-04    3.71      18.8  T
   4    -51.8899385 -0.109452E-07  0.368E-04    3.71      43.5  T
     SCC iter.                  ...        0 min,  0.006 sec
     gradient                   ...        0 min,  0.051 sec
 * total energy  :   -51.1314903 Eh     change       -0.3252339E-04 Eh
   gradient norm :     0.0009686 Eh/α   predicted    -0.2059249E-04 ( -36.68%)
   displ. norm   :     0.2086604 α      lambda       -0.3360382E-04
   maximum displ.:     0.1489556 α      in ANC's #1, #5, #14, ...

........................................................................
.............................. CYCLE   26 ..............................
........................................................................

 iter      E             dE          RMSdq      gap      omega  full diag
   1    -51.8895741 -0.518896E+02  0.338E-02    3.71       0.0  T
   2    -51.8895744 -0.293557E-06  0.198E-02    3.71       1.0  T
   3    -51.8895745 -0.215296E-07  0.138E-03    3.71      11.6  T
   4    -51.8895745 -0.281829E-07  0.679E-04    3.71      23.6  T
   5    -51.8895745 -0.694802E-08  0.358E-04    3.71      44.7  T
     SCC iter.                  ...        0 min,  0.007 sec
     gradient                   ...        0 min,  0.018 sec
 * total energy  :   -51.1315235 Eh     change       -0.3324278E-04 Eh
   gradient norm :     0.0024500 Eh/α   predicted    -0.1712815E-04 ( -48.48%)
   displ. norm   :     0.0692594 α      lambda       -0.1444211E-04
   maximum displ.:     0.0521690 α      in ANC's #1, #5, #14, ...

........................................................................
.............................. CYCLE   27 ..............................
........................................................................

 iter      E             dE          RMSdq      gap      omega  full diag
   1    -51.8898266 -0.518898E+02  0.104E-02    3.72       0.0  T
   2    -51.8898266 -0.287933E-07  0.617E-03    3.71       2.6  T
   3    -51.8898266  0.151951E-07  0.919E-04    3.71      17.4  T
   4    -51.8898267 -0.227852E-07  0.242E-04    3.71      66.1  T
     SCC iter.                  ...        0 min,  0.006 sec
     gradient                   ...        0 min,  0.018 sec
 * total energy  :   -51.1315364 Eh     change       -0.1290247E-04 Eh
   gradient norm :     0.0019140 Eh/α   predicted    -0.7268493E-05 ( -43.67%)
   displ. norm   :     0.1233041 α      lambda       -0.1895359E-04
   maximum displ.:     0.0967638 α      in ANC's #1, #5, #14, ...

........................................................................
.............................. CYCLE   28 ..............................
........................................................................

 iter      E             dE          RMSdq      gap      omega  full diag
   1    -51.8903883 -0.518904E+02  0.187E-02    3.72       0.0  T
   2    -51.8903885 -0.166720E-06  0.111E-02    3.72       1.4  T
   3    -51.8903883  0.130025E-06  0.247E-03    3.72       6.5  T
   4    -51.8903885 -0.168981E-06  0.526E-04    3.72      30.4  T
   5    -51.8903885 -0.417665E-08  0.248E-04    3.72      64.5  T
     SCC iter.                  ...        0 min,  0.007 sec
     gradient                   ...        0 min,  0.018 sec
 * total energy  :   -51.1315570 Eh     change       -0.2054481E-04 Eh
   gradient norm :     0.0004642 Eh/α   predicted    -0.9541048E-05 ( -53.56%)
   displ. norm   :     0.0821135 α      lambda       -0.7944117E-05
   maximum displ.:     0.0684364 α      in ANC's #1, #14, #3, ...

........................................................................
.............................. CYCLE   29 ..............................
........................................................................

 iter      E             dE          RMSdq      gap      omega  full diag
   1    -51.8903747 -0.518904E+02  0.124E-02    3.72       0.0  T
   2    -51.8903747 -0.559568E-07  0.733E-03    3.72       2.2  T
   3    -51.8903747  0.279974E-07  0.115E-03    3.72      13.9  T
   4    -51.8903748 -0.375856E-07  0.303E-04    3.72      52.8  T
   5    -51.8903748 -0.174299E-08  0.135E-04    3.72     118.7  T
     SCC iter.                  ...        0 min,  0.007 sec
     gradient                   ...        0 min,  0.018 sec
 * total energy  :   -51.1315673 Eh     change       -0.1034999E-04 Eh
   gradient norm :     0.0007859 Eh/α   predicted    -0.3992245E-05 ( -61.43%)
   displ. norm   :     0.0550880 α      lambda       -0.6877232E-05
   maximum displ.:     0.0458311 α      in ANC's #1, #3, #2, ...

........................................................................
.............................. CYCLE   30 ..............................
........................................................................

 iter      E             dE          RMSdq      gap      omega  full diag
   1    -51.8905151 -0.518905E+02  0.943E-03    3.72       0.0  T
   2    -51.8905151 -0.138271E-07  0.554E-03    3.72       2.9  T
   3    -51.8905151 -0.486985E-09  0.401E-04    3.72      39.9  T
   4    -51.8905151 -0.379817E-08  0.169E-04    3.72      95.0  T
     SCC iter.                  ...        0 min,  0.006 sec
     gradient                   ...        0 min,  0.043 sec
 * total energy  :   -51.1315770 Eh     change       -0.9644753E-05 Eh
   gradient norm :     0.0008747 Eh/α   predicted    -0.3443819E-05 ( -64.29%)
   displ. norm   :     0.0816564 α      lambda       -0.1107153E-04
   maximum displ.:     0.0613253 α      in ANC's #1, #3, #2, ...

........................................................................
.............................. CYCLE   31 ..............................
........................................................................

 iter      E             dE          RMSdq      gap      omega  full diag
   1    -51.8904255 -0.518904E+02  0.155E-02    3.72       0.0  T
   2    -51.8904255 -0.369052E-07  0.911E-03    3.72       1.8  T
   3    -51.8904255 -0.139767E-08  0.632E-04    3.72      25.3  T
   4    -51.8904256 -0.109256E-07  0.308E-04    3.72      52.0  T
     SCC iter.                  ...        0 min,  0.006 sec
     gradient                   ...        0 min,  0.018 sec
 * total energy  :   -51.1315922 Eh     change       -0.1521254E-04 Eh
   gradient norm :     0.0006846 Eh/α   predicted    -0.5552700E-05 ( -63.50%)
   displ. norm   :     0.1258188 α      lambda       -0.1519165E-04
   maximum displ.:     0.0908901 α      in ANC's #1, #5, #3, ...

........................................................................
.............................. CYCLE   32 ..............................
........................................................................

 iter      E             dE          RMSdq      gap      omega  full diag
   1    -51.8903043 -0.518903E+02  0.244E-02    3.72       0.0  T
   2    -51.8903044 -0.107814E-06  0.143E-02    3.72       1.1  T
   3    -51.8903044  0.315365E-07  0.144E-03    3.72      11.1  T
   4    -51.8903045 -0.703012E-07  0.520E-04    3.72      30.8  T
   5    -51.8903045 -0.259337E-08  0.222E-04    3.72      72.2  T
     SCC iter.                  ...        0 min,  0.007 sec
     gradient                   ...        0 min,  0.018 sec
 * total energy  :   -51.1316119 Eh     change       -0.1970065E-04 Eh
   gradient norm :     0.0005467 Eh/α   predicted    -0.7653730E-05 ( -61.15%)
   displ. norm   :     0.1259626 α      lambda       -0.1234236E-04
   maximum displ.:     0.0931912 α      in ANC's #1, #2, #3, ...

........................................................................
.............................. CYCLE   33 ..............................
........................................................................

 iter      E             dE          RMSdq      gap      omega  full diag
   1    -51.8902534 -0.518903E+02  0.241E-02    3.72       0.0  T
   2    -51.8902536 -0.123829E-06  0.142E-02    3.72       1.1  T
   3    -51.8902535  0.309129E-07  0.144E-03    3.71      11.1  T
   4    -51.8902536 -0.679230E-07  0.508E-04    3.71      31.5  T
   5    -51.8902536 -0.282765E-08  0.241E-04    3.71      66.6  T
     SCC iter.                  ...        0 min,  0.007 sec
     gradient                   ...        0 min,  0.018 sec
 * total energy  :   -51.1316277 Eh     change       -0.1580711E-04 Eh
   gradient norm :     0.0004822 Eh/α   predicted    -0.6218019E-05 ( -60.66%)
   displ. norm   :     0.0908859 α      lambda       -0.8024163E-05
   maximum displ.:     0.0697163 α      in ANC's #1, #2, #3, ...

........................................................................
.............................. CYCLE   34 ..............................
........................................................................

 iter      E             dE          RMSdq      gap      omega  full diag
   1    -51.8902806 -0.518903E+02  0.165E-02    3.71       0.0  T
   2    -51.8902807 -0.616765E-07  0.965E-03    3.71       1.7  T
   3    -51.8902806  0.136326E-07  0.101E-03    3.71      15.9  T
   4    -51.8902807 -0.307639E-07  0.342E-04    3.71      46.8  T
   5    -51.8902807 -0.104793E-08  0.170E-04    3.71      94.2  T
     SCC iter.                  ...        0 min,  0.007 sec
     gradient                   ...        0 min,  0.057 sec
 * total energy  :   -51.1316388 Eh     change       -0.1106737E-04 Eh
   gradient norm :     0.0004170 Eh/α   predicted    -0.4030429E-05 ( -63.58%)
   displ. norm   :     0.0751893 α      lambda       -0.7398169E-05
   maximum displ.:     0.0583998 α      in ANC's #1, #2, #3, ...

........................................................................
.............................. CYCLE   35 ..............................
........................................................................

 iter      E             dE          RMSdq      gap      omega  full diag
   1    -51.8903729 -0.518904E+02  0.127E-02    3.71       0.0  T
   2    -51.8903730 -0.293159E-07  0.743E-03    3.71       2.2  T
   3    -51.8903730  0.211106E-08  0.617E-04    3.71      26.0  T
   4    -51.8903730 -0.102290E-07  0.211E-04    3.71      75.8  T
     SCC iter.                  ...        0 min,  0.006 sec
     gradient                   ...        0 min,  0.018 sec
 * total energy  :   -51.1316494 Eh     change       -0.1058016E-04 Eh
   gradient norm :     0.0003670 Eh/α   predicted    -0.3712022E-05 ( -64.92%)
   displ. norm   :     0.0898181 α      lambda       -0.9494142E-05
   maximum displ.:     0.0675536 α      in ANC's #1, #2, #3, ...

........................................................................
.............................. CYCLE   36 ..............................
........................................................................

 iter      E             dE          RMSdq      gap      omega  full diag
   1    -51.8904087 -0.518904E+02  0.141E-02    3.71       0.0  T
   2    -51.8904087 -0.293862E-07  0.830E-03    3.71       1.9  T
   3    -51.8904087  0.319449E-08  0.680E-04    3.71      23.5  T
   4    -51.8904087 -0.119420E-07  0.236E-04    3.71      67.9  T
     SCC iter.                  ...        0 min,  0.006 sec
     gradient                   ...        0 min,  0.057 sec
 * total energy  :   -51.1316627 Eh     change       -0.1337423E-04 Eh
   gradient norm :     0.0003905 Eh/α   predicted    -0.4767086E-05 ( -64.36%)
   displ. norm   :     0.1280835 α      lambda       -0.1270309E-04
   maximum displ.:     0.0934048 α      in ANC's #1, #2, #3, ...

........................................................................
.............................. CYCLE   37 ..............................
........................................................................

 iter      E             dE          RMSdq      gap      omega  full diag
   1    -51.8903442 -0.518903E+02  0.198E-02    3.71       0.0  T
   2    -51.8903443 -0.661299E-07  0.116E-02    3.71       1.4  T
   3    -51.8903443  0.364351E-07  0.138E-03    3.71      11.6  T
   4    -51.8903443 -0.551166E-07  0.352E-04    3.71      45.5  T
   5    -51.8903443 -0.124479E-08  0.172E-04    3.71      93.0  T
     SCC iter.                  ...        0 min,  0.007 sec
     gradient                   ...        0 min,  0.018 sec
 * total energy  :   -51.1316800 Eh     change       -0.1727615E-04 Eh
   gradient norm :     0.0003717 Eh/α   predicted    -0.6399139E-05 ( -62.96%)
   displ. norm   :     0.1604886 α      lambda       -0.1353765E-04
   maximum displ.:     0.1160601 α      in ANC's #1, #2, #3, ...

........................................................................
.............................. CYCLE   38 ..............................
........................................................................

 iter      E             dE          RMSdq      gap      omega  full diag
   1    -51.8903101 -0.518903E+02  0.244E-02    3.72       0.0  T
   2    -51.8903102 -0.112220E-06  0.143E-02    3.72       1.1  T
   3    -51.8903101  0.720854E-07  0.182E-03    3.72       8.8  T
   4    -51.8903102 -0.103341E-06  0.439E-04    3.72      36.4  T
   5    -51.8903102 -0.216242E-08  0.219E-04    3.72      73.2  T
     SCC iter.                  ...        0 min,  0.007 sec
     gradient                   ...        0 min,  0.018 sec
 * total energy  :   -51.1316979 Eh     change       -0.1786328E-04 Eh
   gradient norm :     0.0003990 Eh/α   predicted    -0.6846677E-05 ( -61.67%)
   displ. norm   :     0.1673430 α      lambda       -0.1158560E-04
   maximum displ.:     0.1210232 α      in ANC's #1, #2, #3, ...

........................................................................
.............................. CYCLE   39 ..............................
........................................................................

 iter      E             dE          RMSdq      gap      omega  full diag
   1    -51.8902422 -0.518902E+02  0.251E-02    3.72       0.0  T
   2    -51.8902423 -0.134852E-06  0.147E-02    3.72       1.1  T
   3    -51.8902422  0.752931E-07  0.191E-03    3.72       8.4  T
   4    -51.8902424 -0.107789E-06  0.467E-04    3.72      34.3  T
   5    -51.8902424 -0.298092E-08  0.223E-04    3.72      71.7  T
     SCC iter.                  ...        0 min,  0.007 sec
     gradient                   ...        0 min,  0.033 sec
 * total energy  :   -51.1317131 Eh     change       -0.1526729E-04 Eh
   gradient norm :     0.0003497 Eh/α   predicted    -0.5869329E-05 ( -61.56%)
   displ. norm   :     0.1610622 α      lambda       -0.9757585E-05
   maximum displ.:     0.1171790 α      in ANC's #1, #2, #3, ...

........................................................................
.............................. CYCLE   40 ..............................
........................................................................

 iter      E             dE          RMSdq      gap      omega  full diag
   1    -51.8902537 -0.518903E+02  0.242E-02    3.72       0.0  T
   2    -51.8902538 -0.106013E-06  0.142E-02    3.72       1.1  T
   3    -51.8902538  0.712612E-07  0.183E-03    3.72       8.8  T
   4    -51.8902539 -0.102042E-06  0.418E-04    3.72      38.3  T
   5    -51.8902539 -0.183837E-08  0.212E-04    3.72      75.4  T
     SCC iter.                  ...        0 min,  0.007 sec
     gradient                   ...        0 min,  0.018 sec
 * total energy  :   -51.1317262 Eh     change       -0.1303268E-04 Eh
   gradient norm :     0.0003695 Eh/α   predicted    -0.4935601E-05 ( -62.13%)
   displ. norm   :     0.1650368 α      lambda       -0.9348255E-05
   maximum displ.:     0.1203296 α      in ANC's #1, #2, #3, ...

........................................................................
.............................. CYCLE   41 ..............................
........................................................................

 iter      E             dE          RMSdq      gap      omega  full diag
   1    -51.8902844 -0.518903E+02  0.244E-02    3.72       0.0  T
   2    -51.8902845 -0.108070E-06  0.143E-02    3.72       1.1  T
   3    -51.8902845  0.319630E-07  0.149E-03    3.72      10.7  T
   4    -51.8902846 -0.592718E-07  0.432E-04    3.72      37.0  T
   5    -51.8902846 -0.189257E-08  0.216E-04    3.72      74.0  T
     SCC iter.                  ...        0 min,  0.007 sec
     gradient                   ...        0 min,  0.051 sec
 * total energy  :   -51.1317387 Eh     change       -0.1251654E-04 Eh
   gradient norm :     0.0003574 Eh/α   predicted    -0.4731723E-05 ( -62.20%)
   displ. norm   :     0.1838612 α      lambda       -0.9789623E-05
   maximum displ.:     0.1345422 α      in ANC's #1, #2, #3, ...

........................................................................
.............................. CYCLE   42 ..............................
........................................................................

 iter      E             dE          RMSdq      gap      omega  full diag
   1    -51.8902118 -0.518902E+02  0.279E-02    3.72       0.0  T
   2    -51.8902119 -0.109989E-06  0.164E-02    3.72       1.0  T
   3    -51.8902119  0.233761E-07  0.149E-03    3.72      10.7  T
   4    -51.8902119 -0.576728E-07  0.458E-04    3.72      35.0  T
   5    -51.8902119 -0.114601E-08  0.237E-04    3.72      67.7  T
     SCC iter.                  ...        0 min,  0.007 sec
     gradient                   ...        0 min,  0.018 sec
 * total energy  :   -51.1317514 Eh     change       -0.1273072E-04 Eh
   gradient norm :     0.0004401 Eh/α   predicted    -0.4971683E-05 ( -60.95%)
   displ. norm   :     0.1954978 α      lambda       -0.9075968E-05
   maximum displ.:     0.1440783 α      in ANC's #1, #2, #3, ...
 * RMSD in coord.:     0.3668407 α      energy gain  -0.4312534E-03 Eh

generating ANC from exact Hessian ...
Using Lindh-Hessian (1995)
 Shifting diagonal of input Hessian by    9.5894813720025368E-003
 Lowest  eigenvalues of input Hessian
    0.000000    0.000000    0.000000    0.000000    0.000000    0.000000
    0.010000    0.010032    0.010312    0.011164    0.011890    0.012995
    0.013287    0.015345    0.015510    0.015796    0.017272    0.017912
 Highest eigenvalues
    1.630577    1.885605    1.915840    2.016803    2.117153    2.369089


........................................................................
.............................. CYCLE   43 ..............................
........................................................................

 iter      E             dE          RMSdq      gap      omega  full diag
   1    -51.8902644 -0.518903E+02  0.294E-02    3.72       0.0  T
   2    -51.8902645 -0.127810E-06  0.172E-02    3.72       1.0  T
   3    -51.8902645 -0.983377E-09  0.125E-03    3.72      12.8  T
   4    -51.8902646 -0.368125E-07  0.469E-04    3.72      34.1  T
   5    -51.8902646 -0.681972E-09  0.231E-04    3.72      69.3  T
     SCC iter.                  ...        0 min,  0.040 sec
     gradient                   ...        0 min,  0.018 sec
 * total energy  :   -51.1317627 Eh     change       -0.1127324E-04 Eh
   gradient norm :     0.0004217 Eh/α   predicted     0.0000000E+00 (-100.00%)
   displ. norm   :     0.0130798 α      lambda       -0.2122562E-06
   maximum displ.:     0.0071795 α      in ANC's #1, #2, #14, ...

........................................................................
.............................. CYCLE   44 ..............................
........................................................................

 iter      E             dE          RMSdq      gap      omega  full diag
   1    -51.8905934 -0.518906E+02  0.321E-03    3.72       0.0  T
   2    -51.8905934 -0.915097E-08  0.187E-03    3.72       8.6  T
   3    -51.8905934  0.354424E-08  0.441E-04    3.72      36.3  T
   4    -51.8905934 -0.471293E-08  0.121E-04    3.72     132.9  T
     SCC iter.                  ...        0 min,  0.006 sec
     gradient                   ...        0 min,  0.018 sec
 * total energy  :   -51.1317644 Eh     change       -0.1698198E-05 Eh
   gradient norm :     0.0001845 Eh/α   predicted    -0.7034128E-06 ( -58.58%)
   displ. norm   :     0.0407276 α      lambda       -0.2995427E-05
   maximum displ.:     0.0213734 α      in ANC's #1, #2, #14, ...

   *** GEOMETRY OPTIMIZATION CONVERGED AFTER 44 ITERATIONS ***

------------------------------------------------------------------------
 total energy gain   :        -0.0122371 Eh       -7.6789 kcal/mol
 total RMSD          :         0.9823038 a0        0.5198 Å
 total power (kW/mol):        -0.7301946 (step)  -15.8111 (real)
------------------------------------------------------------------------

 ANCopt (total)                0 d,  0 h,  0 min,  2.032 sec
 optimizer setup                ...        0 min,  0.000 sec (  0.004%)
 model hessian                  ...        0 min,  0.057 sec (  2.820%)
 ANC generation                 ...        0 min,  0.004 sec (  0.194%)
 coordinate transformation      ...        0 min,  0.000 sec (  0.013%)
 single point calculation       ...        0 min,  1.933 sec ( 95.120%)
 optimization log               ...        0 min,  0.005 sec (  0.262%)
 hessian update                 ...        0 min,  0.000 sec (  0.024%)
 rational function              ...        0 min,  0.030 sec (  1.456%)

================
 final structure:
================
39
 xtb: 6.7.1 (edcfbbe)
C            1.65166546523897       -2.37205957368102        0.90742196692033
C            2.37298126294784       -1.05691318940041        0.94628814072363
C            3.56869173567215       -0.92266284262685        1.63246035314170
C            4.23446453782697        0.29001082551777        1.65509392148943
C            3.69347737364655        1.38345412853702        1.00747969581193
C            2.48867258897154        1.29201978170353        0.32139624168019
C            1.89739054165896        2.50322826550652       -0.32567036914959
C            1.84431586590482        0.05325552765714        0.27731250124779
N            0.62012547420621       -0.11526762934741       -0.40144547479913
C            0.32526076801758        0.18614478472727       -1.68295495890057
C           -1.09173437018916       -0.25715735311749       -2.05690427715144
N           -1.97157526061412       -0.30216010913893       -0.90295603380577
C           -3.12944400340210       -1.15534587877293       -1.12823508981138
C           -3.86420330652335       -1.49781900830928        0.16212500211370
C           -2.32156424400004        1.03756328801902       -0.42737683751314
C           -2.03977471686246        1.22122207183970        1.06327557813961
O            1.07532184842949        0.69838034606586       -2.48560647488687
H            2.25277228123472       -3.14794553681965        1.37409101919261
H            1.44304104080533       -2.66473286104034       -0.12096189361065
H            0.70201606392999       -2.31047071158564        1.44162129938457
H            3.98532111116526       -1.77724417561283        2.14566320186538
H            5.17115734978091        0.38249395558341        2.18420907105125
H            4.20655951331170        2.33355408234027        1.03945816656395
H            0.84842752632725        2.61176531955037       -0.05085043083197
H            2.43610494736396        3.39853974039130       -0.02639505610608
H            1.94321066197056        2.40744604460555       -1.41011654627508
H           -0.10411170260187       -0.64530618060276        0.07176698920884
H           -1.45741051338410        0.39717613150498       -2.86357159027576
H           -0.99678183879784       -1.26469165173233       -2.47513343518146
H           -3.83788148061169       -0.69510671967998       -1.83950630638961
H           -2.76775839582028       -2.08545330099586       -1.57532545571333
H           -3.17203185587417       -1.91633989351959        0.88828545442689
H           -4.63563224693759       -2.23507348788583       -0.04709325826051
H           -4.34013854763004       -0.62140249937127        0.59250944115153
H           -1.73773799391254        1.77811055513555       -0.98205980661994
H           -3.38143643929903        1.24521880450427       -0.62499094708417
H           -2.53562726206714        0.45648385810002        1.65283639873509
H           -2.40337418925654        2.19494063503234        1.38376791842364
H           -0.97275959063169        1.17224445692085        1.26319188109219

 Bond Distances (Angstroems)
 ---------------------------
C1-C2=1.5005         C1-H18=1.0868        C1-H19=1.0894        C1-H20=1.0913        C2-C1=1.5005         C2-C3=1.3851         
C2-C8=1.3998         C3-C2=1.3851         C3-C4=1.3836         C3-H21=1.0804        C4-C3=1.3836         C4-C5=1.3812         
C4-H22=1.0798        C5-C4=1.3812         C5-C6=1.3895         C5-H23=1.0803        C6-C5=1.3895         C6-C7=1.4951         
C6-C8=1.3970         C7-C6=1.4951         C7-H24=1.0898        C7-H25=1.0869        C7-H26=1.0896        C8-C2=1.3998         
C8-C6=1.3970         C8-N9=1.4099         N9-C8=1.4099         N9-C10=1.3491        N9-H27=1.0146        C10-N9=1.3491        
C10-C11=1.5311       C10-O17=1.2121       C11-C10=1.5311       C11-N12=1.4518       C11-H28=1.1012       C11-H29=1.0950       
N12-C11=1.4518       N12-C13=1.4558       N12-C15=1.4641       C13-N12=1.4558       C13-C14=1.5239       C13-H30=1.1044       
C13-H31=1.0935       C14-C13=1.5239       C14-H32=1.0870       C14-H33=1.0874       C14-H34=1.0862       C15-N12=1.4641       
C15-C16=1.5281       C15-H35=1.0940       C15-H36=1.0980       C16-C15=1.5281       C16-H37=1.0855       C16-H38=1.0877       
C16-H39=1.0867       O17-C10=1.2121       H18-C1=1.0868        H19-C1=1.0894        H20-C1=1.0913        H21-C3=1.0804        
H22-C4=1.0798        H23-C5=1.0803        H24-C7=1.0898        H25-C7=1.0869        H26-C7=1.0896        H27-N9=1.0146        
H28-C11=1.1012       H29-C11=1.0950       H30-C13=1.1044       H31-C13=1.0935       H32-C14=1.0870       H33-C14=1.0874       
H34-C14=1.0862       H35-C15=1.0940       H36-C15=1.0980       H37-C16=1.0855       H38-C16=1.0877       H39-C16=1.0867       
 C  H  Rav=1.0896 sigma=0.0063  Rmin=1.0798  Rmax=1.1044    21
 C  C  Rav=1.4468 sigma=0.0639  Rmin=1.3812  Rmax=1.5311    11
 N  H  Rav=1.0146 sigma=0.0000  Rmin=1.0146  Rmax=1.0146     1
 N  C  Rav=1.4261 sigma=0.0428  Rmin=1.3491  Rmax=1.4641     5
 O  C  Rav=1.2121 sigma=0.0000  Rmin=1.2121  Rmax=1.2121     1

 selected bond angles (degree)
 --------------------
H18-C1-C2=110.41               H19-C1-C2=110.61               H19-C1-H18=108.63              H20-C1-C2=110.87               
H20-C1-H18=108.14              H20-C1-H19=108.10              C3-C2-C1=120.85                C8-C2-C1=120.08                
C8-C2-C3=119.07                C4-C3-C2=120.56                H21-C3-C2=119.44               H21-C3-C4=120.00               
C5-C4-C3=119.85                H22-C4-C3=120.03               H22-C4-C5=120.11               C6-C5-C4=121.27                
H23-C5-C4=119.76               H23-C5-C6=118.97               C7-C6-C5=120.22                C8-C6-C5=118.29                
C8-C6-C7=121.49                H24-C7-C6=110.62               H25-C7-C6=110.62               H25-C7-H24=109.00              
H26-C7-C6=110.05               H26-C7-H24=107.47              H26-C7-H25=109.00              C6-C8-C2=120.93                
N9-C8-C2=117.59                N9-C8-C6=121.44                C10-N9-C8=128.34               H27-N9-C8=117.24               
H27-N9-C10=113.81              C11-C10-N9=111.69              O17-C10-N9=126.03              O17-C10-C11=122.23             

 selected dihedral angles (degree)
 ---------------------------------
C3-C2-C1-H18=353.73           C3-C2-C1-H19=233.45           C3-C2-C1-H20=113.55           C8-C2-C1-H18=173.33           
C8-C2-C1-H19= 53.06           C8-C2-C1-H20=293.16           C4-C3-C2-C1=179.46            C4-C3-C2-C8=359.85            
H21-C3-C2-C1=  0.00           H21-C3-C2-C8=180.38           C5-C4-C3-C2=  1.08            C5-C4-C3-H21=180.55           
H22-C4-C3-C2=180.63           H22-C4-C3-H21=  0.09          C6-C5-C4-C3=359.65            C6-C5-C4-H22=180.11           
H23-C5-C4-C3=179.02           H23-C5-C4-H22=359.47          C7-C6-C5-C4=177.58            C7-C6-C5-H23=358.21           
C8-C6-C5-C4=358.71            C8-C6-C5-H23=179.34           H24-C7-C6-C5=229.40           H24-C7-C6-C8= 48.23           
H25-C7-C6-C5=350.29           H25-C7-C6-C8=169.12           H26-C7-C6-C5=110.79           H26-C7-C6-C8=289.62           
C6-C8-C2-C1=178.85            C6-C8-C2-C3=358.46            N9-C8-C2-C1=  0.92            N9-C8-C2-C3=180.53            
C2-C8-C6-C5=  2.23            C2-C8-C6-C7=183.38            N9-C8-C6-C5=180.09            N9-C8-C6-C7=  1.23            
C10-N9-C8-C2=232.17           C10-N9-C8-C6= 54.25           H27-N9-C8-C2= 42.64           H27-N9-C8-C6=224.72           
C11-C10-N9-C8=175.48          C11-C10-N9-H27=  4.73         O17-C10-N9-C8=358.06          O17-C10-N9-H27=187.31         
           -------------------------------------------------
          |                Final Singlepoint                |
           -------------------------------------------------

          ...................................................
          :                      SETUP                      :
          :.................................................:
          :  # basis functions                  90          :
          :  # atomic orbitals                  90          :
          :  # shells                           56          :
          :  # electrons                        94          :
          :  max. iterations                   250          :
          :  Hamiltonian                  GFN2-xTB          :
          :  restarted?                      false          :
          :  GBSA solvation                  false          :
          :  PC potential                    false          :
          :  electronic temp.          300.0000000     K    :
          :  accuracy                    1.0000000          :
          :  -> integral cutoff          0.2500000E+02      :
          :  -> integral neglect         0.1000000E-07      :
          :  -> SCF convergence          0.1000000E-05 Eh   :
          :  -> wf. convergence          0.1000000E-03 e    :
          :  Broyden damping             0.4000000          :
          :  net charge                          0          :
          :  unpaired electrons                  0          :
          ...................................................

 iter      E             dE          RMSdq      gap      omega  full diag
   1    -51.8905934 -0.518906E+02  0.459E-05    3.72       0.0  T
   2    -51.8905934 -0.573408E-11  0.274E-05    3.72     584.1  T
   3    -51.8905934  0.122213E-11  0.160E-05    3.72    1002.9  T

   *** convergence criteria satisfied after 3 iterations ***

         #    Occupation            Energy/Eh            Energy/eV
      -------------------------------------------------------------
         1        2.0000           -0.6927296             -18.8501
       ...           ...                  ...                  ...
        41        2.0000           -0.4318007             -11.7499
        42        2.0000           -0.4231156             -11.5136
        43        2.0000           -0.4138641             -11.2618
        44        2.0000           -0.3920910             -10.6693
        45        2.0000           -0.3859383             -10.5019
        46        2.0000           -0.3783806             -10.2963
        47        2.0000           -0.3602761              -9.8036 (HOMO)
        48                         -0.2236272              -6.0852 (LUMO)
        49                         -0.2135345              -5.8106
        50                         -0.1913407              -5.2066
        51                         -0.0880465              -2.3959
        52                          0.0008296               0.0226
       ...                                ...                  ...
        90                          0.6828561              18.5815
      -------------------------------------------------------------
                  HL-Gap            0.1366489 Eh            3.7184 eV
             Fermi-level           -0.2919517 Eh           -7.9444 eV

 SCC (total)                   0 d,  0 h,  0 min,  0.050 sec
 SCC setup                      ...        0 min,  0.000 sec (  0.479%)
 Dispersion                     ...        0 min,  0.000 sec (  0.487%)
 classical contributions        ...        0 min,  0.000 sec (  0.236%)
 integral evaluation            ...        0 min,  0.006 sec ( 11.516%)
 iterations                     ...        0 min,  0.004 sec (  8.765%)
 molecular gradient             ...        0 min,  0.039 sec ( 78.291%)
 printout                       ...        0 min,  0.000 sec (  0.214%)

         :::::::::::::::::::::::::::::::::::::::::::::::::::::
         ::                     SUMMARY                     ::
         :::::::::::::::::::::::::::::::::::::::::::::::::::::
         :: total energy             -51.131764387013 Eh    ::
         :: gradient norm              0.000184669810 Eh/a0 ::
         :: HOMO-LUMO gap              3.718405244560 eV    ::
         ::.................................................::
         :: SCC energy               -51.889929518835 Eh    ::
         :: -> isotropic ES            0.048004332199 Eh    ::
         :: -> anisotropic ES          0.007012022719 Eh    ::
         :: -> anisotropic XC          0.027738267976 Eh    ::
         :: -> dispersion             -0.037550435234 Eh    ::
         :: repulsion energy           0.758165131822 Eh    ::
         :: add. restraining           0.000000000000 Eh    ::
         :: total charge               0.000000000000 e     ::
         :::::::::::::::::::::::::::::::::::::::::::::::::::::

           -------------------------------------------------
          |                Property Printout                |
           -------------------------------------------------

    * Orbital Energies and Occupations

         #    Occupation            Energy/Eh            Energy/eV
      -------------------------------------------------------------
         1        2.0000           -0.6927296             -18.8501
       ...           ...                  ...                  ...
        35        2.0000           -0.4644836             -12.6392
        36        2.0000           -0.4561880             -12.4135
        37        2.0000           -0.4505543             -12.2602
        38        2.0000           -0.4480360             -12.1917
        39        2.0000           -0.4466858             -12.1549
        40        2.0000           -0.4377616             -11.9121
        41        2.0000           -0.4318007             -11.7499
        42        2.0000           -0.4231156             -11.5136
        43        2.0000           -0.4138641             -11.2618
        44        2.0000           -0.3920910             -10.6693
        45        2.0000           -0.3859383             -10.5019
        46        2.0000           -0.3783806             -10.2963
        47        2.0000           -0.3602761              -9.8036 (HOMO)
        48                         -0.2236272              -6.0852 (LUMO)
        49                         -0.2135345              -5.8106
        50                         -0.1913407              -5.2066
        51                         -0.0880465              -2.3959
        52                          0.0008296               0.0226
        53                          0.0195600               0.5323
        54                          0.0596604               1.6234
        55                          0.0818595               2.2275
        56                          0.0944394               2.5698
        57                          0.1052107               2.8629
        58                          0.1147470               3.1224
       ...                                ...                  ...
        90                          0.6828561              18.5815
      -------------------------------------------------------------
                  HL-Gap            0.1366489 Eh            3.7184 eV
             Fermi-level           -0.2919517 Eh           -7.9444 eV

     #   Z          covCN         q      C6AA      α(0)
     1   6 C        3.757    -0.108    22.620     6.781
     2   6 C        2.969    -0.003    28.093     8.694
     3   6 C        2.924    -0.045    29.113     8.848
     4   6 C        2.916    -0.038    28.940     8.822
     5   6 C        2.927    -0.044    29.087     8.845
     6   6 C        2.965     0.013    27.731     8.638
     7   6 C        3.758    -0.110    22.660     6.787
     8   6 C        2.915     0.055    26.765     8.483
     9   7 N        2.697    -0.163    24.520     7.354
    10   6 C        2.747     0.271    22.425     7.754
    11   6 C        3.764    -0.022    21.005     6.533
    12   7 N        2.726    -0.192    25.154     7.449
    13   6 C        3.753     0.017    20.347     6.432
    14   6 C        3.752    -0.108    22.627     6.784
    15   6 C        3.752     0.012    20.434     6.446
    16   6 C        3.751    -0.113    22.726     6.799
    17   8 O        0.857    -0.434    22.366     6.341
    18   1 H        0.925     0.045     2.377     2.411
    19   1 H        0.925     0.046     2.374     2.409
    20   1 H        0.924     0.040     2.446     2.446
    21   1 H        0.926     0.031     2.570     2.507
    22   1 H        0.926     0.032     2.562     2.503
    23   1 H        0.926     0.035     2.522     2.484
    24   1 H        0.925     0.039     2.468     2.457
    25   1 H        0.925     0.038     2.470     2.458
    26   1 H        0.925     0.081     1.970     2.195
    27   1 H        0.860     0.197     1.122     1.659
    28   1 H        0.923     0.035     2.514     2.479
    29   1 H        0.924     0.048     2.340     2.392
    30   1 H        0.923     0.009     2.910     2.668
    31   1 H        0.924     0.031     2.570     2.507
    32   1 H        0.925     0.043     2.408     2.427
    33   1 H        0.925     0.040     2.455     2.450
    34   1 H        0.925     0.043     2.403     2.424
    35   1 H        0.924     0.030     2.588     2.516
    36   1 H        0.923     0.023     2.685     2.563
    37   1 H        0.925     0.045     2.382     2.414
    38   1 H        0.925     0.038     2.478     2.461
    39   1 H        0.925     0.042     2.420     2.433

 Mol. C6AA /au·bohr⁶  :      13885.512136
 Mol. C8AA /au·bohr⁸  :     311541.344276
 Mol. α(0) /au        :        181.051597


[...]
   
   for GFN2-xTB:
   * C. Bannwarth, S. Ehlert and S. Grimme., J. Chem. Theory Comput., 2019,
     15, 1652-1671. DOI: 10.1021/acs.jctc.8b01176
   for GFN1-xTB:
   * S. Grimme, C. Bannwarth, P. Shushkov, J. Chem. Theory Comput., 2017,
     13, 1989-2009. DOI: 10.1021/acs.jctc.7b00118
   for GFN0-xTB:
   * P. Pracht, E. Caldeweyher, S. Ehlert, S. Grimme, ChemRxiv, 2019, preprint.
     DOI: 10.26434/chemrxiv.8326202.v1
   for GFN-FF:
   * S. Spicher and S. Grimme, Angew. Chem. Int. Ed., 2020, 59, 15665-15673.
     DOI: 10.1002/anie.202004239
   
   for ALPB and GBSA implicit solvation:
   * S. Ehlert, M. Stahn, S. Spicher, S. Grimme, J. Chem. Theory Comput.,
     2021, 17, 4250-4261. DOI: 10.1021/acs.jctc.1c00471
   
   for ddCOSMO and CPCM-X implicit solvation:
   * M. Stahn, S. Ehlert, S. Grimme, J. Phys. Chem. A,
     2023, XX, XXXX-XXXX. DOI: 10.1021/acs.jpca.3c04382
   
   for DFT-D4:
   * E. Caldeweyher, C. Bannwarth and S. Grimme, J. Chem. Phys., 2017,
     147, 034112. DOI: 10.1063/1.4993215
   * E. Caldeweyher, S. Ehlert, A. Hansen, H. Neugebauer, S. Spicher,
     C. Bannwarth and S. Grimme, J. Chem. Phys., 2019, 150, 154122.
     DOI: 10.1063/1.5090222
   * E. Caldeweyher, J.-M. Mewes, S. Ehlert and S. Grimme, Phys. Chem. Chem. Phys.
     2020, 22, 8499-8512. DOI: 10.1039/D0CP00502A
   
   for sTDA-xTB:
   * S. Grimme and C. Bannwarth, J. Chem. Phys., 2016, 145, 054103.
     DOI: 10.1063/1.4959605
   
   in the mass-spec context:
   * V. Asgeirsson, C. Bauer and S. Grimme, Chem. Sci., 2017, 8, 4879.
     DOI: 10.1039/c7sc00601b
   * J. Koopman and S. Grimme, ACS Omega 2019, 4, 12, 15120-15133.
     DOI: 10.1021/acsomega.9b02011
   
   for metadynamics refer to:
   * S. Grimme, J. Chem. Theory Comput., 2019, 155, 2847-2862
     DOI: 10.1021/acs.jctc.9b00143
   
   for SPH calculations refer to:
   * S. Spicher and S. Grimme, J. Chem. Theory Comput., 2021, 17, 1701-1714
     DOI: 10.1021/acs.jctc.0c01306
   
   for ONIOM refer to:
   * C. Plett, A. Katbashev, S. Ehlert, S. Grimme, M. Bursch,
     Phys. Chem. Chem. Phys., 2023, 25, 17860-17868. DOI: 10.1039/D3CP02178E
   
   for DIPRO refer to:
   * J. Kohn, N. Gildemeister, S. Grimme, D. Fazzi, A. Hansen,
     J. Chem. Phys., 2023, just accepted.
   
   for PTB refer to:
   * S. Grimme, M. Mueller, A. Hansen, J. Chem. Phys., 2023, 158, 124111.
     DOI: 10.1063/5.0137838
   
   with help from (in alphabetical order)
   P. Atkinson, C. Bannwarth, F. Bohle, G. Brandenburg, E. Caldeweyher
   M. Checinski, S. Dohm, S. Ehlert, S. Ehrlich, I. Gerasimov, C. Hölzer
   A. Katbashev, J. Kohn, J. Koopman, C. Lavigne, S. Lehtola, F. März, M. Müller,
   F. Musil, H. Neugebauer, J. Pisarek, C. Plett, P. Pracht, F. Pultar,
   J. Seibert, P. Shushkov, S. Spicher, M. Stahn, M. Steiner, T. Strunk,
   J. Stückrath, T. Rose, and J. Unsleber
   
 * started run on 2025/05/15 at 16:07:00.633     
   ID    Z sym.   atoms
    1    6 C      1-8, 10, 11, 13-16
    2    7 N      9, 12
    3    8 O      17
    4    1 H      18-39

           -------------------------------------------------
          |                Calculation Setup                |
           -------------------------------------------------

          program call               : xtb /rds/general/user/hgt20/home/callum/QDESCP/Lidocaine_rdkit_conf_13/Lidocaine_rdkit_conf_13.xyz --acc 1 --gfn 2 --chrg 0 --uhf 2 --etemp 300 --input /rds/general/user/hgt20/home/callum/QDESCP/Lidocaine_rdkit_conf_13/Lidocaine_rdkit_conf_13_xtb.inp -P 1
          hostname                   : login-c
          coordinate file            : /rds/general/user/hgt20/home/callum/QDESCP/Lidocaine_rdkit_conf_13/Lidocaine_rdkit_conf_13.xyz
          omp threads                :                     1


           -------------------------------------------------
          |                 G F N 2 - x T B                 |
           -------------------------------------------------

        Reference                      10.1021/acs.jctc.8b01176
      * Hamiltonian:
        H0-scaling (s, p, d)           1.850000    2.230000    2.230000
        zeta-weighting                 0.500000
      * Dispersion:
        s8                             2.700000
        a1                             0.520000
        a2                             5.000000
        s9                             5.000000
      * Repulsion:
        kExp                           1.500000    1.000000
        rExp                           1.000000
      * Coulomb:
        alpha                          2.000000
        third order                    shell-resolved
        anisotropic                    true
        a3                             3.000000
        a5                             4.000000
        cn-shift                       1.200000
        cn-exp                         4.000000
        max-rad                        5.000000


          ...................................................
          :                      SETUP                      :
          :.................................................:
          :  # basis functions                  90          :
          :  # atomic orbitals                  90          :
          :  # shells                           56          :
          :  # electrons                        94          :
          :  max. iterations                   250          :
          :  Hamiltonian                  GFN2-xTB          :
          :  restarted?                      false          :
          :  GBSA solvation                  false          :
          :  PC potential                    false          :
          :  electronic temp.          300.0000000     K    :
          :  accuracy                    1.0000000          :
          :  -> integral cutoff          0.2500000E+02      :
          :  -> integral neglect         0.1000000E-07      :
          :  -> SCF convergence          0.1000000E-05 Eh   :
          :  -> wf. convergence          0.1000000E-03 e    :
          :  Broyden damping             0.4000000          :
          :  net charge                          0          :
          :  unpaired electrons                  2          :
          ...................................................

 iter      E             dE          RMSdq      gap      omega  full diag
   1    -51.4660061 -0.514660E+02  0.316E+00    0.12       0.0  T
   2    -51.4148064  0.511997E-01  0.320E+00    1.18       1.0  T
   3    -51.5177121 -0.102906E+00  0.210E+00    0.17       1.0  T
   4    -51.4977298  0.199823E-01  0.235E+00    1.14       1.0  T
   5    -51.6197749 -0.122045E+00  0.149E+00    0.43       1.0  T
   6    -51.7003718 -0.805969E-01  0.886E-01    0.37       1.0  T
   7    -51.7267297 -0.263579E-01  0.594E-01    0.32       1.0  T
   8    -51.7315136 -0.478394E-02  0.462E-01    0.28       1.0  T
   9    -51.7379318 -0.641818E-02  0.224E-01    0.20       1.0  T
  10    -51.7371247  0.807042E-03  0.205E-01    0.28       1.0  T
  11    -51.7399639 -0.283916E-02  0.545E-02    0.25       1.0  T
  12    -51.7400094 -0.455192E-04  0.332E-02    0.24       1.0  T
  13    -51.7400687 -0.592918E-04  0.111E-02    0.24       1.4  T
  14    -51.7400691 -0.441410E-06  0.543E-03    0.24       3.0  T
  15    -51.7400701 -0.100389E-05  0.305E-03    0.24       5.3  T
  16    -51.7400707 -0.601536E-06  0.691E-04    0.24      23.2  T
  17    -51.7400708 -0.154754E-07  0.410E-04    0.24      39.0  T

   *** convergence criteria satisfied after 17 iterations ***

         #    Occupation            Energy/Eh            Energy/eV
      -------------------------------------------------------------
         1        2.0000           -0.6860895             -18.6694
       ...           ...                  ...                  ...
        42        2.0000           -0.4134543             -11.2507
        43        2.0000           -0.4060057             -11.0480
        44        2.0000           -0.3942155             -10.7272
        45        2.0000           -0.3803648             -10.3503
        46        1.9914           -0.3754377             -10.2162
        47        1.0087           -0.3664319              -9.9711
        48        0.9901           -0.2116220              -5.7585 (HOMO)
        49        0.0099           -0.2028623              -5.5202 (LUMO)
        50                         -0.1818818              -4.9493
        51                         -0.0763005              -2.0762
        52                         -0.0115900              -0.3154
        53                          0.0204209               0.5557
       ...                                ...                  ...
        90                          0.6919857              18.8299
      -------------------------------------------------------------
                  HL-Gap            0.0087598 Eh            0.2384 eV
             Fermi-level           -0.2890871 Eh           -7.8665 eV

 transition dipole moment (au) for excitation:          47          48
     X       Y       Z   
   1.0540  -0.0006   0.9613  total (au/Debye):    1.427   3.626
 dE (eV)             :    4.213
 oscillator strength :  0.29703E+00

 SCC (total)                   0 d,  0 h,  0 min,  0.090 sec
 SCC setup                      ...        0 min,  0.000 sec (  0.318%)
 Dispersion                     ...        0 min,  0.000 sec (  0.403%)
 classical contributions        ...        0 min,  0.000 sec (  0.136%)
 integral evaluation            ...        0 min,  0.006 sec (  6.543%)
 iterations                     ...        0 min,  0.061 sec ( 67.250%)
 molecular gradient             ...        0 min,  0.018 sec ( 19.530%)
 printout                       ...        0 min,  0.005 sec (  5.812%)

         :::::::::::::::::::::::::::::::::::::::::::::::::::::
         ::                     SUMMARY                     ::
         :::::::::::::::::::::::::::::::::::::::::::::::::::::
         :: total energy             -50.981241714600 Eh    ::
         :: gradient norm              0.150713763569 Eh/a0 ::
         :: HOMO-LUMO gap              0.238365006153 eV    ::
         ::.................................................::
         :: SCC energy               -51.739406846422 Eh    ::
         :: -> isotropic ES            0.045739881724 Eh    ::
         :: -> anisotropic ES          0.007574320059 Eh    ::
         :: -> anisotropic XC          0.025263259115 Eh    ::
         :: -> dispersion             -0.037459351584 Eh    ::
         :: repulsion energy           0.758165131822 Eh    ::
         :: add. restraining           0.000000000000 Eh    ::
         :: total charge               0.000000000136 e     ::
         :::::::::::::::::::::::::::::::::::::::::::::::::::::

           -------------------------------------------------
          |                Property Printout                |
           -------------------------------------------------

    * Orbital Energies and Occupations

         #    Occupation            Energy/Eh            Energy/eV
      -------------------------------------------------------------
         1        2.0000           -0.6860895             -18.6694
       ...           ...                  ...                  ...
        36        2.0000           -0.4584250             -12.4744
        37        2.0000           -0.4576222             -12.4525
        38        2.0000           -0.4476109             -12.1801
        39        2.0000           -0.4457311             -12.1290
        40        2.0000           -0.4396597             -11.9637
        41        2.0000           -0.4248268             -11.5601
        42        2.0000           -0.4134543             -11.2507
        43        2.0000           -0.4060057             -11.0480
        44        2.0000           -0.3942155             -10.7272
        45        2.0000           -0.3803648             -10.3503
        46        1.9914           -0.3754377             -10.2162
        47        1.0087           -0.3664319              -9.9711
        48        0.9901           -0.2116220              -5.7585 (HOMO)
        49        0.0099           -0.2028623              -5.5202 (LUMO)
        50                         -0.1818818              -4.9493
        51                         -0.0763005              -2.0762
        52                         -0.0115900              -0.3154
        53                          0.0204209               0.5557
        54                          0.0486855               1.3248
        55                          0.0697265               1.8974
        56                          0.0989577               2.6928
        57                          0.1036963               2.8217
        58                          0.1053968               2.8680
        59                          0.1109923               3.0203
       ...                                ...                  ...
        90                          0.6919857              18.8299
      -------------------------------------------------------------
                  HL-Gap            0.0087598 Eh            0.2384 eV
             Fermi-level           -0.2890871 Eh           -7.8665 eV

     #   Z          covCN         q      C6AA      α(0)
     1   6 C        3.757    -0.107    22.590     6.776
     2   6 C        2.969    -0.014    28.362     8.736
     3   6 C        2.924    -0.043    29.070     8.842
     4   6 C        2.916    -0.049    29.220     8.864
     5   6 C        2.927    -0.055    29.355     8.885
     6   6 C        2.965     0.013    27.710     8.634
     7   6 C        3.758    -0.111    22.667     6.788
     8   6 C        2.915     0.042    27.065     8.531
     9   7 N        2.697    -0.141    24.056     7.284
    10   6 C        2.747     0.227    23.236     7.893
    11   6 C        3.764    -0.020    20.982     6.529
    12   7 N        2.726    -0.151    24.259     7.315
    13   6 C        3.753     0.012    20.437     6.447
    14   6 C        3.752    -0.110    22.668     6.790
    15   6 C        3.752     0.007    20.519     6.460
    16   6 C        3.751    -0.114    22.739     6.801
    17   8 O        0.857    -0.433    22.359     6.340
    18   1 H        0.925     0.043     2.415     2.430
    19   1 H        0.925     0.042     2.422     2.434
    20   1 H        0.924     0.035     2.523     2.484
    21   1 H        0.926     0.024     2.671     2.556
    22   1 H        0.926     0.021     2.722     2.580
    23   1 H        0.926     0.025     2.658     2.550
    24   1 H        0.925     0.040     2.452     2.449
    25   1 H        0.925     0.039     2.465     2.455
    26   1 H        0.925     0.089     1.886     2.148
    27   1 H        0.860     0.191     1.152     1.681
    28   1 H        0.923     0.045     2.386     2.416
    29   1 H        0.924     0.046     2.367     2.406
    30   1 H        0.923     0.022     2.705     2.572
    31   1 H        0.924     0.040     2.451     2.448
    32   1 H        0.925     0.047     2.361     2.403
    33   1 H        0.925     0.044     2.398     2.422
    34   1 H        0.925     0.046     2.369     2.407
    35   1 H        0.924     0.041     2.438     2.442
    36   1 H        0.923     0.032     2.565     2.505
    37   1 H        0.925     0.047     2.353     2.399
    38   1 H        0.925     0.042     2.417     2.431
    39   1 H        0.925     0.048     2.348     2.396

 Mol. C6AA /au·bohr⁶  :      13863.415892
 Mol. C8AA /au·bohr⁸  :     311422.510316
 Mol. α(0) /au        :        180.926468


Wiberg/Mayer (AO) data.
largest (>0.10) Wiberg bond orders for each atom

 ---------------------------------------------------------------------------
     #   Z sym  total        # sym  WBO       # sym  WBO       # sym  WBO
 ---------------------------------------------------------------------------
     1   6 C    3.996 --     2 C    1.027    18 H    0.985    19 H    0.972
                            20 H    0.967
     2   6 C    3.947 --     3 C    1.553     8 C    1.122     1 C    1.027
     3   6 C    3.965 --     2 C    1.553     4 C    1.259    21 H    0.969
     4   6 C    3.802 --     3 C    1.259     5 C    1.255    22 H    0.972
     5   6 C    3.963 --     6 C    1.535     4 C    1.255    23 H    0.968
     6   6 C    3.956 --     5 C    1.535     8 C    1.141     7 C    1.042
     7   6 C    3.994 --     6 C    1.042    25 H    0.985    24 H    0.967
                            26 H    0.939
     8   6 C    3.800 --     9 N    1.149     6 C    1.141     2 C    1.122
                            10 C    0.105
     9   7 N    3.510 --     8 C    1.149    10 C    1.143    27 H    0.904
                            17 O    0.127
    10   6 C    3.912 --    17 O    1.566     9 N    1.143    11 C    0.919
                             8 C    0.105
    11   6 C    3.966 --    12 N    1.018    29 H    0.955    28 H    0.951
                            10 C    0.919
    12   7 N    3.232 --    11 C    1.018    13 C    0.996    15 C    0.993
    13   6 C    3.976 --    14 C    1.016    12 N    0.996    31 H    0.971
                            30 H    0.960
    14   6 C    3.994 --    13 C    1.016    32 H    0.986    33 H    0.985
                            34 H    0.984
    15   6 C    3.979 --    16 C    1.011    12 N    0.993    35 H    0.972
                            36 H    0.967
    16   6 C    3.993 --    15 C    1.011    38 H    0.985    37 H    0.984
                            39 H    0.982
    17   8 O    2.045 --    10 C    1.566     9 N    0.127
    18   1 H    0.998 --     1 C    0.985
    19   1 H    0.997 --     1 C    0.972
    20   1 H    0.998 --     1 C    0.967
    21   1 H    0.998 --     3 C    0.969
    22   1 H    0.999 --     4 C    0.972
    23   1 H    0.998 --     5 C    0.968
    24   1 H    0.998 --     7 C    0.967
    25   1 H    0.998 --     7 C    0.985
    26   1 H    0.990 --     7 C    0.939
    27   1 H    0.963 --     9 N    0.904
    28   1 H    0.990 --    11 C    0.951
    29   1 H    0.993 --    11 C    0.955
    30   1 H    0.991 --    13 C    0.960
    31   1 H    0.998 --    13 C    0.971
    32   1 H    0.997 --    14 C    0.986
    33   1 H    0.998 --    14 C    0.985
    34   1 H    0.998 --    14 C    0.984
    35   1 H    0.998 --    15 C    0.972
    36   1 H    0.994 --    15 C    0.967
    37   1 H    0.998 --    16 C    0.984
    38   1 H    0.998 --    16 C    0.985
    39   1 H    0.998 --    16 C    0.982
 ---------------------------------------------------------------------------

Topologies differ in total number of bonds
Writing topology from bond orders to xtbtopo.mol

molecular dipole:
                 x           y           z       tot (Debye)
 q only:       -1.814      -0.494       0.908
   full:       -2.254      -0.594       0.775       6.245
molecular quadrupole (traceless):
                xx          xy          yy          xz          yz          zz
 q only:        1.242       0.430       6.166       4.369       2.674      -7.408
  q+dip:        2.850      -0.761       7.242       9.721       2.538     -10.092
   full:        2.102      -1.006       6.832       7.939       3.437      -8.934


           -------------------------------------------------
          | TOTAL ENERGY              -50.981241714600 Eh   |
          | GRADIENT NORM               0.150713763569 Eh/α |
          | HOMO-LUMO GAP               0.238365006153 eV   |
           -------------------------------------------------

------------------------------------------------------------------------
 * finished run on 2025/05/15 at 16:07:00.735     
------------------------------------------------------------------------
 total:
 * wall-time:     0 d,  0 h,  0 min,  0.102 sec
 *  cpu-time:     0 d,  0 h,  0 min,  0.065 sec
 * ratio c/w:     0.637 speedup
 SCF:
 * wall-time:     0 d,  0 h,  0 min,  0.090 sec
 *  cpu-time:     0 d,  0 h,  0 min,  0.055 sec
 * ratio c/w:     0.608 speedup


