39
 energy: -51.131764387013 gnorm: 0.000184669810 xtb: 6.7.1 (edcfbbe)
C            1.65166546523897       -2.37205957368102        0.90742196692033
C            2.37298126294784       -1.05691318940041        0.94628814072363
C            3.56869173567215       -0.92266284262685        1.63246035314170
C            4.23446453782697        0.29001082551777        1.65509392148943
C            3.69347737364655        1.38345412853702        1.00747969581193
C            2.48867258897154        1.29201978170353        0.32139624168019
C            1.89739054165896        2.50322826550652       -0.32567036914959
C            1.84431586590482        0.05325552765714        0.27731250124779
N            0.62012547420621       -0.11526762934741       -0.40144547479913
C            0.32526076801758        0.18614478472727       -1.68295495890057
C           -1.09173437018916       -0.25715735311749       -2.05690427715144
N           -1.97157526061412       -0.30216010913893       -0.90295603380577
C           -3.12944400340210       -1.15534587877293       -1.12823508981138
C           -3.86420330652335       -1.49781900830928        0.16212500211370
C           -2.32156424400004        1.03756328801902       -0.42737683751314
C           -2.03977471686246        1.22122207183970        1.06327557813961
O            1.07532184842949        0.69838034606586       -2.48560647488687
H            2.25277228123472       -3.14794553681965        1.37409101919261
H            1.44304104080533       -2.66473286104034       -0.12096189361065
H            0.70201606392999       -2.31047071158564        1.44162129938457
H            3.98532111116526       -1.77724417561283        2.14566320186538
H            5.17115734978091        0.38249395558341        2.18420907105125
H            4.20655951331170        2.33355408234027        1.03945816656395
H            0.84842752632725        2.61176531955037       -0.05085043083197
H            2.43610494736396        3.39853974039130       -0.02639505610608
H            1.94321066197056        2.40744604460555       -1.41011654627508
H           -0.10411170260187       -0.64530618060276        0.07176698920884
H           -1.45741051338410        0.39717613150498       -2.86357159027576
H           -0.99678183879784       -1.26469165173233       -2.47513343518146
H           -3.83788148061169       -0.69510671967998       -1.83950630638961
H           -2.76775839582028       -2.08545330099586       -1.57532545571333
H           -3.17203185587417       -1.91633989351959        0.88828545442689
H           -4.63563224693759       -2.23507348788583       -0.04709325826051
H           -4.34013854763004       -0.62140249937127        0.59250944115153
H           -1.73773799391254        1.77811055513555       -0.98205980661994
H           -3.38143643929903        1.24521880450427       -0.62499094708417
H           -2.53562726206714        0.45648385810002        1.65283639873509
H           -2.40337418925654        2.19494063503234        1.38376791842364
H           -0.97275959063169        1.17224445692085        1.26319188109219
