33
 energy: -45.170709151204 gnorm: 0.000618163431 xtb: 6.7.1 (edcfbbe)
C           -4.56520585417429        0.67920319286802        0.11814421986184
C           -3.10472987624079        0.36264987188101       -0.19282140730653
C           -2.31932010235678        0.15769718789124        1.11395200020698
C           -0.84984424523885       -0.01690569652719        0.86501839411009
C           -0.06527167453947        1.06792221626094        0.49089442218050
C            1.28405183850350        0.91622731119464        0.23572830322631
C            1.88935661448670       -0.32888983694249        0.35468063284618
C            3.37143841009911       -0.50595423102811        0.09549291683561
C            3.61072229131184       -0.19696063435483       -1.36759909645412
O            3.75468109563755        1.10983855207798       -1.61905580441373
O            3.63947855821878       -1.02258050509065       -2.24118597761262
C            4.22075334366765        0.36245740547001        1.02379114227270
C            1.10873618401359       -1.41576767741644        0.72156392615782
C           -0.24251062339055       -1.26036831741711        0.97400409953148
C           -3.00362412453653       -0.87241539889374       -1.08298424559279
H           -5.12494421568726        0.83745362327078       -0.80098817863063
H           -4.64562963564069        1.57746423516263        0.72682854831402
H           -5.02452323034070       -0.14474232319751        0.66070316696327
H           -2.66717200967661        1.21266552196505       -0.72786770044388
H           -2.71463345271143       -0.71943321029653        1.63039260181653
H           -2.47569053561153        1.02847364139951        1.75615826035069
H           -0.51797973798805        2.04529706239079        0.40060385282974
H            1.87059314785097        1.77234456130918       -0.06229171338861
H            3.62534189030655       -1.56050951749145        0.23931687155662
H            3.86895128480205        1.25417433539348       -2.57153133238943
H            4.03434439052177        1.41686320345866        0.84484815906193
H            5.27788994594659        0.16436893800716        0.86205272857421
H            3.97641147106938        0.13477141742813        2.05873658435769
H            1.56042564482764       -2.39314071781831        0.81221885067302
H           -0.83209629393651       -2.11938505721711        1.26088598127012
H           -1.96431830147283       -1.09483956601615       -1.31359098050514
H           -3.43918586173128       -1.73609220459024       -0.58442779563433
H           -3.53669633599088       -0.71218738313304       -2.01747143062447
