57
 energy: -87.643030340294 gnorm: 0.000307243549 xtb: 6.7.1 (edcfbbe)
O           -2.56412997410933        1.63750012825854       -1.12741708141667
C           -3.18251007940149        0.67240006136795       -0.71153561902481
C           -2.67546679506320       -0.67400062149669       -0.58273399362642
C           -1.23783350268684       -0.87742983033715       -0.95306469040282
C           -0.33425876313976       -0.64277329590694        0.26800997856080
N            1.01218382762414       -1.12684921617188        0.02768609462507
C            1.77562133899386       -0.23277827948508       -0.82305977618029
C            3.07916061673738       -0.90363759095010       -1.24049103496571
C            3.92777720453971       -1.25634664637842       -0.00889345853099
C            3.06724238516970       -2.06001157267846        0.96671212764836
C            1.74128880544039       -1.36543503552461        1.26272870239883
C            4.50777562505583       -0.01748486203310        0.58444378236419
N            4.07059305062648        0.56604464781699        1.65696216360700
O            4.82610749852535        1.68168090845972        1.91206817225510
C            5.76279583819164        1.78567411348054        0.95583108252995
C            5.62364549576288        0.71617226775788        0.05080615982924
C            6.49039470640159        0.59349389378479       -1.03301014692067
C            7.47174833731464        1.54511578594297       -1.18446408590436
C            7.57920571712237        2.59521668178916       -0.26829283617127
F            8.55876722159815        3.49825374677435       -0.46306833965142
C            6.74597803156232        2.75518888982493        0.81734568603544
C           -3.49276804169508       -1.66629521577177       -0.12132558046131
N           -4.78634531552724       -1.43484481238013        0.23126848770664
C           -5.24805936194202       -0.23365643729568        0.13037939138787
N           -4.51954020352367        0.81413858482915       -0.31363649917196
C           -5.18146040985632        2.09177515418321       -0.46101790089430
C           -6.47115681525115        1.88325986802224       -1.25046865280675
C           -7.39452675628511        0.87730144072715       -0.54375350700389
C           -6.64981247277106        0.07968137745005        0.53898834869733
C           -3.05167087917587       -3.08852036945708        0.02544564418776
H           -0.98948492095108       -0.15913901080800       -1.73515553031608
H           -1.06680593954658       -1.88717993865583       -1.32467129177465
H           -0.35209764256239        0.42715117724008        0.53276739945029
H           -0.74320964804376       -1.20153745611118        1.11460517094891
H            1.18831755239914       -0.00836304922018       -1.71446562321159
H            1.99293352115539        0.72019848821286       -0.30742672700428
H            2.84157292676997       -1.82552900164953       -1.77290190517814
H            3.63434049181942       -0.24563916074946       -1.91190567911339
H            4.77482037150881       -1.87392061472832       -0.33368962362437
H            2.85975633949569       -3.03246992635458        0.51635234837872
H            3.60731742433095       -2.21397830452040        1.90138721826924
H            1.93837140045247       -0.42968538116116        1.80831699210691
H            1.13625723488169       -2.01753754054746        1.89843363839044
H            6.39490305507009       -0.22475350334930       -1.72908505486008
H            8.17244451250048        1.50247988752975       -2.00299740042365
H            6.85594848750564        3.57466670703028        1.50640977006134
H           -4.48631281816359        2.75071950491847       -0.98736199522974
H           -5.39357140991303        2.51570527257934        0.52593759268423
H           -6.97177097741643        2.84192502066029       -1.38293933526239
H           -6.20152019641795        1.50887270426319       -2.23980388475294
H           -7.80526152666025        0.18333054495417       -1.27741075707606
H           -8.23345456382029        1.39408385733738       -0.07617558473106
H           -6.60285804172979        0.67253471631435        1.45715218416935
H           -7.16575677345895       -0.85184474723910        0.76500927441964
H           -3.84330217150000       -3.65554657432039        0.50578102249319
H           -2.84949608969642       -3.52217111720372       -0.95286396625889
H           -2.14282692825098       -3.15490631902218        0.61805912874807
