----- Optimization -----
      -----------------------------------------------------------      
     |                   =====================                   |     
     |                           x T B                           |     
     |                   =====================                   |     
     |                         S. Grimme                         |     
     |          Mulliken Center for Theoretical Chemistry        |     
     |                    University of Bonn                     |     
      -----------------------------------------------------------      

   * xtb version 6.7.1 (edcfbbe) compiled by 'conda@3ef47c1a292c' on 2024-11-25

   xtb is free software: you can redistribute it and/or modify it under
   the terms of the GNU Lesser General Public License as published by
   the Free Software Foundation, either version 3 of the License, or
   (at your option) any later version.
   
   xtb is distributed in the hope that it will be useful,
   but WITHOUT ANY WARRANTY; without even the implied warranty of
   MERCHANTABILITY or FITNESS FOR A PARTICULAR PURPOSE.  See the
   GNU Lesser General Public License for more details.
   
   Cite this work as:
   * C. Bannwarth, E. Caldeweyher, S. Ehlert, A. Hansen, P. Pracht,
     J. Seibert, S. Spicher, S. Grimme, WIREs Comput. Mol. Sci., 2020, 11,
     e01493. DOI: 10.1002/wcms.1493
   
   for GFN2-xTB:
   * C. Bannwarth, S. Ehlert and S. Grimme., J. Chem. Theory Comput., 2019,
     15, 1652-1671. DOI: 10.1021/acs.jctc.8b01176
   for GFN1-xTB:
   * S. Grimme, C. Bannwarth, P. Shushkov, J. Chem. Theory Comput., 2017,
     13, 1989-2009. DOI: 10.1021/acs.jctc.7b00118
   for GFN0-xTB:
   * P. Pracht, E. Caldeweyher, S. Ehlert, S. Grimme, ChemRxiv, 2019, preprint.
     DOI: 10.26434/chemrxiv.8326202.v1
   for GFN-FF:
   * S. Spicher and S. Grimme, Angew. Chem. Int. Ed., 2020, 59, 15665-15673.
     DOI: 10.1002/anie.202004239
   
   for ALPB and GBSA implicit solvation:
   * S. Ehlert, M. Stahn, S. Spicher, S. Grimme, J. Chem. Theory Comput.,
     2021, 17, 4250-4261. DOI: 10.1021/acs.jctc.1c00471
   
   for ddCOSMO and CPCM-X implicit solvation:
   * M. Stahn, S. Ehlert, S. Grimme, J. Phys. Chem. A,
     2023, XX, XXXX-XXXX. DOI: 10.1021/acs.jpca.3c04382
   
   for DFT-D4:
   * E. Caldeweyher, C. Bannwarth and S. Grimme, J. Chem. Phys., 2017,
     147, 034112. DOI: 10.1063/1.4993215
   * E. Caldeweyher, S. Ehlert, A. Hansen, H. Neugebauer, S. Spicher,
     C. Bannwarth and S. Grimme, J. Chem. Phys., 2019, 150, 154122.
     DOI: 10.1063/1.5090222
   * E. Caldeweyher, J.-M. Mewes, S. Ehlert and S. Grimme, Phys. Chem. Chem. Phys.
     2020, 22, 8499-8512. DOI: 10.1039/D0CP00502A
   
   for sTDA-xTB:
   * S. Grimme and C. Bannwarth, J. Chem. Phys., 2016, 145, 054103.
     DOI: 10.1063/1.4959605
   
   in the mass-spec context:
   * V. Asgeirsson, C. Bauer and S. Grimme, Chem. Sci., 2017, 8, 4879.
     DOI: 10.1039/c7sc00601b
   * J. Koopman and S. Grimme, ACS Omega 2019, 4, 12, 15120-15133.
     DOI: 10.1021/acsomega.9b02011
   
   for metadynamics refer to:
   * S. Grimme, J. Chem. Theory Comput., 2019, 155, 2847-2862
     DOI: 10.1021/acs.jctc.9b00143
   
   for SPH calculations refer to:
   * S. Spicher and S. Grimme, J. Chem. Theory Comput., 2021, 17, 1701-1714
     DOI: 10.1021/acs.jctc.0c01306
   
   for ONIOM refer to:
   * C. Plett, A. Katbashev, S. Ehlert, S. Grimme, M. Bursch,
     Phys. Chem. Chem. Phys., 2023, 25, 17860-17868. DOI: 10.1039/D3CP02178E
   
   for DIPRO refer to:
   * J. Kohn, N. Gildemeister, S. Grimme, D. Fazzi, A. Hansen,
     J. Chem. Phys., 2023, just accepted.
   
   for PTB refer to:
   * S. Grimme, M. Mueller, A. Hansen, J. Chem. Phys., 2023, 158, 124111.
     DOI: 10.1063/5.0137838
   
   with help from (in alphabetical order)
   P. Atkinson, C. Bannwarth, F. Bohle, G. Brandenburg, E. Caldeweyher
   M. Checinski, S. Dohm, S. Ehlert, S. Ehrlich, I. Gerasimov, C. Hölzer
   A. Katbashev, J. Kohn, J. Koopman, C. Lavigne, S. Lehtola, F. März, M. Müller,
   F. Musil, H. Neugebauer, J. Pisarek, C. Plett, P. Pracht, F. Pultar,
   J. Seibert, P. Shushkov, S. Spicher, M. Stahn, M. Steiner, T. Strunk,
   J. Stückrath, T. Rose, and J. Unsleber
   
 * started run on 2025/05/15 at 16:36:11.973     
   ID    Z sym.   atoms
    1    8 O      1, 14
    2    6 C      2-5, 7-12, 15-19, 21, 22, 24, 26-30
    3    7 N      6, 13, 23, 25
    4    9 F      20
    5    1 H      31-57

           -------------------------------------------------
          |                Calculation Setup                |
           -------------------------------------------------

          program call               : xtb /rds/general/user/hgt20/home/callum/QDESCP/Risperidone_rdkit_conf_9/Risperidone_rdkit_conf_9.xyz --opt normal --acc 1 --gfn 2 --chrg 0 --uhf 0 -P 1
          hostname                   : login-c
          coordinate file            : /rds/general/user/hgt20/home/callum/QDESCP/Risperidone_rdkit_conf_9/Risperidone_rdkit_conf_9.xyz
          omp threads                :                     1


           -------------------------------------------------
          |                 G F N 2 - x T B                 |
           -------------------------------------------------

        Reference                      10.1021/acs.jctc.8b01176
      * Hamiltonian:
        H0-scaling (s, p, d)           1.850000    2.230000    2.230000
        zeta-weighting                 0.500000
      * Dispersion:
        s8                             2.700000
        a1                             0.520000
        a2                             5.000000
        s9                             5.000000
      * Repulsion:
        kExp                           1.500000    1.000000
        rExp                           1.000000
      * Coulomb:
        alpha                          2.000000
        third order                    shell-resolved
        anisotropic                    true
        a3                             3.000000
        a5                             4.000000
        cn-shift                       1.200000
        cn-exp                         4.000000
        max-rad                        5.000000


          ...................................................
          :                      SETUP                      :
          :.................................................:
          :  # basis functions                 147          :
          :  # atomic orbitals                 147          :
          :  # shells                           87          :
          :  # electrons                       158          :
          :  max. iterations                   250          :
          :  Hamiltonian                  GFN2-xTB          :
          :  restarted?                      false          :
          :  GBSA solvation                  false          :
          :  PC potential                    false          :
          :  electronic temp.          300.0000000     K    :
          :  accuracy                    1.0000000          :
          :  -> integral cutoff          0.2500000E+02      :
          :  -> integral neglect         0.1000000E-07      :
          :  -> SCF convergence          0.1000000E-05 Eh   :
          :  -> wf. convergence          0.1000000E-03 e    :
          :  Broyden damping             0.4000000          :
          :  net charge                          0          :
          :  unpaired electrons                  0          :
          ...................................................

 iter      E             dE          RMSdq      gap      omega  full diag
   1    -88.5788953 -0.885789E+02  0.360E+00    3.09       0.0  T
   2    -88.7059274 -0.127032E+00  0.218E+00    2.51       1.0  T
   3    -88.7098893 -0.396196E-02  0.118E+00    2.01       1.0  T
   4    -88.7258930 -0.160036E-01  0.417E-01    1.60       1.0  T
   5    -88.7316755 -0.578249E-02  0.114E-01    1.54       1.0  T
   6    -88.7319407 -0.265256E-03  0.603E-02    1.56       1.0  T
   7    -88.7320222 -0.814734E-04  0.243E-02    1.59       1.0  T
   8    -88.7320266 -0.445167E-05  0.946E-03    1.60       1.4  T
   9    -88.7320284 -0.174820E-05  0.391E-03    1.60       3.4  T
  10    -88.7320286 -0.246001E-06  0.129E-03    1.60      10.3  T
  11    -88.7320287 -0.159819E-07  0.732E-04    1.60      18.1  T
  12    -88.7320287 -0.111688E-07  0.304E-04    1.60      43.6  T

   *** convergence criteria satisfied after 12 iterations ***

         #    Occupation            Energy/Eh            Energy/eV
      -------------------------------------------------------------
         1        2.0000           -0.8285917             -22.5471
       ...           ...                  ...                  ...
        73        2.0000           -0.4154979             -11.3063
        74        2.0000           -0.4102001             -11.1621
        75        2.0000           -0.4069865             -11.0747
        76        2.0000           -0.3867437             -10.5238
        77        2.0000           -0.3815122             -10.3815
        78        2.0000           -0.3801461             -10.3443
        79        2.0000           -0.3417316              -9.2990 (HOMO)
        80                         -0.2830702              -7.7027 (LUMO)
        81                         -0.2506211              -6.8197
        82                         -0.2408823              -6.5547
        83                         -0.2244876              -6.1086
        84                         -0.2067362              -5.6256
       ...                                ...                  ...
       147                          0.6958180              18.9342
      -------------------------------------------------------------
                  HL-Gap            0.0586613 Eh            1.5963 eV
             Fermi-level           -0.3124009 Eh           -8.5009 eV

 SCC (total)                   0 d,  0 h,  0 min,  0.114 sec
 SCC setup                      ...        0 min,  0.001 sec (  0.509%)
 Dispersion                     ...        0 min,  0.001 sec (  0.717%)
 classical contributions        ...        0 min,  0.000 sec (  0.225%)
 integral evaluation            ...        0 min,  0.011 sec (  9.922%)
 iterations                     ...        0 min,  0.044 sec ( 38.670%)
 molecular gradient             ...        0 min,  0.057 sec ( 49.655%)
 printout                       ...        0 min,  0.000 sec (  0.295%)

         :::::::::::::::::::::::::::::::::::::::::::::::::::::
         ::                     SUMMARY                     ::
         :::::::::::::::::::::::::::::::::::::::::::::::::::::
         :: total energy             -87.625523208665 Eh    ::
         :: gradient norm              0.108962397917 Eh/a0 ::
         :: HOMO-LUMO gap              1.596256494300 eV    ::
         ::.................................................::
         :: SCC energy               -88.732051151610 Eh    ::
         :: -> isotropic ES            0.080848709250 Eh    ::
         :: -> anisotropic ES          0.008426800735 Eh    ::
         :: -> anisotropic XC          0.041789939248 Eh    ::
         :: -> dispersion             -0.061278654580 Eh    ::
         :: repulsion energy           1.106527942946 Eh    ::
         :: add. restraining           0.000000000000 Eh    ::
         :: total charge               0.000000000000 e     ::
         :::::::::::::::::::::::::::::::::::::::::::::::::::::

      ----------------------------------------------------------- 
     |                   =====================                   |
     |                        A N C O P T                        |
     |                   =====================                   |
     |               Approximate Normal Coordinate               |
     |                Rational Function Optimizer                |
      ----------------------------------------------------------- 
      ----------------------------------------------------------- 
     |                   =====================                   |
     |                        A N C O P T                        |
     |                   =====================                   |
     |               Approximate Normal Coordinate               |
     |                Rational Function Optimizer                |
      ----------------------------------------------------------- 

          ...................................................
          :                      SETUP                      :
          :.................................................:
          :   optimization level            normal          :
          :   max. optcycles                   200          :
          :   ANC micro-cycles                  20          :
          :   degrees of freedom               165          :
          :.................................................:
          :   RF solver                   davidson          :
          :   write xtbopt.log                true          :
          :   linear?                        false          :
          :   energy convergence         0.5000000E-05 Eh   :
          :   grad. convergence          0.1000000E-02 Eh/α :
          :   maxmium RF displ.          1.0000000          :
          :   Hlow (freq-cutoff)         0.1000000E-01      :
          :   Hmax (freq-cutoff)         5.0000000          :
          :   S6 in model hess.         20.0000000          :
          ...................................................

generating ANC from exact Hessian ...
Using Lindh-Hessian (1995)
 Shifting diagonal of input Hessian by    9.8765552120996820E-003
 Lowest  eigenvalues of input Hessian
    0.000000    0.000000    0.000000    0.000000    0.000000    0.000000
    0.010000    0.010164    0.010279    0.010545    0.010765    0.011470
    0.011853    0.012583    0.012940    0.013143    0.015988    0.016844
 Highest eigenvalues
    1.921390    1.941484    2.069545    2.168989    2.186454    2.331509


........................................................................
.............................. CYCLE    1 ..............................
........................................................................

 iter      E             dE          RMSdq      gap      omega  full diag
   1    -88.7320287 -0.887320E+02  0.130E-04    1.60       0.0  T
   2    -88.7320287 -0.154984E-09  0.932E-05    1.60     142.1  T
   3    -88.7320287 -0.260457E-09  0.516E-05    1.60     256.9  T
     SCC iter.                  ...        0 min,  0.012 sec
     gradient                   ...        0 min,  0.061 sec
 * total energy  :   -87.6255232 Eh     change       -0.2285091E-08 Eh
   gradient norm :     0.1089627 Eh/α   predicted     0.0000000E+00 (-100.00%)
   displ. norm   :     0.3073481 α      lambda       -0.1542498E-01
   maximum displ.:     0.1165612 α      in ANC's #54, #55, #39, ...

........................................................................
.............................. CYCLE    2 ..............................
........................................................................

 iter      E             dE          RMSdq      gap      omega  full diag
   1    -88.7688154 -0.887688E+02  0.196E-01    1.72       0.0  T
   2    -88.7689102 -0.948301E-04  0.115E-01    1.75       1.0  T
   3    -88.7688573  0.529132E-04  0.468E-02    1.76       1.0  T
   4    -88.7689243 -0.669967E-04  0.117E-02    1.76       1.1  T
   5    -88.7689306 -0.632492E-05  0.372E-03    1.76       3.6  T
   6    -88.7689309 -0.302828E-06  0.165E-03    1.76       8.0  T
   7    -88.7689309 -0.219994E-07  0.649E-04    1.76      20.4  T
   8    -88.7689310 -0.710665E-08  0.232E-04    1.76      57.2  T
     SCC iter.                  ...        0 min,  0.029 sec
     gradient                   ...        0 min,  0.050 sec
 * total energy  :   -87.6361150 Eh     change       -0.1059178E-01 Eh
   gradient norm :     0.0482375 Eh/α   predicted    -0.8446714E-02 ( -20.25%)
   displ. norm   :     0.3033197 α      lambda       -0.4901450E-02
   maximum displ.:     0.1492009 α      in ANC's #8, #9, #19, ...

........................................................................
.............................. CYCLE    3 ..............................
........................................................................

 iter      E             dE          RMSdq      gap      omega  full diag
   1    -88.7887964 -0.887888E+02  0.118E-01    1.82       0.0  T
   2    -88.7888508 -0.543679E-04  0.696E-02    1.84       1.0  T
   3    -88.7888223  0.284820E-04  0.415E-02    1.84       1.0  T
   4    -88.7888685 -0.462071E-04  0.844E-03    1.84       1.6  T
   5    -88.7888722 -0.363309E-05  0.217E-03    1.84       6.1  T
   6    -88.7888723 -0.884819E-07  0.930E-04    1.84      14.2  T
   7    -88.7888723 -0.798809E-08  0.386E-04    1.84      34.3  T
     SCC iter.                  ...        0 min,  0.025 sec
     gradient                   ...        0 min,  0.064 sec
 * total energy  :   -87.6391078 Eh     change       -0.2992814E-02 Eh
   gradient norm :     0.0162094 Eh/α   predicted    -0.2678651E-02 ( -10.50%)
   displ. norm   :     0.2732094 α      lambda       -0.1186788E-02
   maximum displ.:     0.1722441 α      in ANC's #8, #9, #19, ...

........................................................................
.............................. CYCLE    4 ..............................
........................................................................

 iter      E             dE          RMSdq      gap      omega  full diag
   1    -88.7918394 -0.887918E+02  0.538E-02    1.84       0.0  T
   2    -88.7918454 -0.608792E-05  0.310E-02    1.84       1.0  T
   3    -88.7918367  0.874338E-05  0.204E-02    1.84       1.0  T
   4    -88.7918504 -0.136572E-04  0.248E-03    1.84       5.4  T
   5    -88.7918506 -0.247938E-06  0.893E-04    1.84      14.8  T
   6    -88.7918506 -0.933437E-08  0.442E-04    1.84      29.9  T
     SCC iter.                  ...        0 min,  0.021 sec
     gradient                   ...        0 min,  0.058 sec
 * total energy  :   -87.6400272 Eh     change       -0.9193726E-03 Eh
   gradient norm :     0.0113380 Eh/α   predicted    -0.6377036E-03 ( -30.64%)
   displ. norm   :     0.4255711 α      lambda       -0.1203903E-02
   maximum displ.:     0.2722813 α      in ANC's #8, #9, #19, ...

........................................................................
.............................. CYCLE    5 ..............................
........................................................................

 iter      E             dE          RMSdq      gap      omega  full diag
   1    -88.7919500 -0.887920E+02  0.657E-02    1.81       0.0  T
   2    -88.7919541 -0.411213E-05  0.377E-02    1.81       1.0  T
   3    -88.7919410  0.131528E-04  0.199E-02    1.81       1.0  T
   4    -88.7919573 -0.163271E-04  0.227E-03    1.81       5.8  T
   5    -88.7919575 -0.150324E-06  0.106E-03    1.81      12.4  T
   6    -88.7919575 -0.422438E-08  0.411E-04    1.81      32.2  T
   7    -88.7919575 -0.423840E-08  0.147E-04    1.81      90.0  T
     SCC iter.                  ...        0 min,  0.025 sec
     gradient                   ...        0 min,  0.070 sec
 * total energy  :   -87.6408701 Eh     change       -0.8428819E-03 Eh
   gradient norm :     0.0106186 Eh/α   predicted    -0.7109721E-03 ( -15.65%)
   displ. norm   :     0.3308874 α      lambda       -0.5500871E-03
   maximum displ.:     0.2029900 α      in ANC's #8, #9, #4, ...

........................................................................
.............................. CYCLE    6 ..............................
........................................................................

 iter      E             dE          RMSdq      gap      omega  full diag
   1    -88.7920353 -0.887920E+02  0.461E-02    1.79       0.0  T
   2    -88.7920372 -0.191014E-05  0.271E-02    1.79       1.0  T
   3    -88.7920359  0.128323E-05  0.585E-03    1.79       2.3  T
   4    -88.7920376 -0.173965E-05  0.160E-03    1.79       8.3  T
   5    -88.7920377 -0.744196E-07  0.761E-04    1.79      17.4  T
   6    -88.7920377 -0.527857E-08  0.275E-04    1.79      48.1  T
     SCC iter.                  ...        0 min,  0.021 sec
     gradient                   ...        0 min,  0.064 sec
 * total energy  :   -87.6412689 Eh     change       -0.3988292E-03 Eh
   gradient norm :     0.0106526 Eh/α   predicted    -0.3051793E-03 ( -23.48%)
   displ. norm   :     0.2852890 α      lambda       -0.3573600E-03
   maximum displ.:     0.1586758 α      in ANC's #8, #9, #4, ...

........................................................................
.............................. CYCLE    7 ..............................
........................................................................

 iter      E             dE          RMSdq      gap      omega  full diag
   1    -88.7932866 -0.887933E+02  0.399E-02    1.77       0.0  T
   2    -88.7932887 -0.217877E-05  0.237E-02    1.76       1.0  T
   3    -88.7932838  0.497495E-05  0.116E-02    1.77       1.1  T
   4    -88.7932900 -0.627614E-05  0.184E-03    1.77       7.2  T
   5    -88.7932901 -0.100280E-06  0.791E-04    1.77      16.7  T
   6    -88.7932902 -0.579502E-08  0.347E-04    1.77      38.1  T
     SCC iter.                  ...        0 min,  0.021 sec
     gradient                   ...        0 min,  0.051 sec
 * total energy  :   -87.6415238 Eh     change       -0.2548713E-03 Eh
   gradient norm :     0.0082365 Eh/α   predicted    -0.1932229E-03 ( -24.19%)
   displ. norm   :     0.2214005 α      lambda       -0.2100029E-03
   maximum displ.:     0.1105478 α      in ANC's #4, #8, #9, ...

........................................................................
.............................. CYCLE    8 ..............................
........................................................................

 iter      E             dE          RMSdq      gap      omega  full diag
   1    -88.7949734 -0.887950E+02  0.333E-02    1.76       0.0  T
   2    -88.7949749 -0.153763E-05  0.194E-02    1.76       1.0  T
   3    -88.7949715  0.338681E-05  0.107E-02    1.76       1.2  T
   4    -88.7949760 -0.446530E-05  0.156E-03    1.76       8.5  T
   5    -88.7949761 -0.819343E-07  0.629E-04    1.76      21.1  T
   6    -88.7949761 -0.337738E-08  0.305E-04    1.76      43.5  T
     SCC iter.                  ...        0 min,  0.021 sec
     gradient                   ...        0 min,  0.043 sec
 * total energy  :   -87.6416722 Eh     change       -0.1484378E-03 Eh
   gradient norm :     0.0050971 Eh/α   predicted    -0.1101487E-03 ( -25.79%)
   displ. norm   :     0.1719142 α      lambda       -0.1244340E-03
   maximum displ.:     0.1004651 α      in ANC's #4, #14, #9, ...

........................................................................
.............................. CYCLE    9 ..............................
........................................................................

 iter      E             dE          RMSdq      gap      omega  full diag
   1    -88.7962780 -0.887963E+02  0.274E-02    1.75       0.0  T
   2    -88.7962792 -0.119782E-05  0.159E-02    1.75       1.0  T
   3    -88.7962776  0.157872E-05  0.747E-03    1.75       1.8  T
   4    -88.7962796 -0.195031E-05  0.153E-03    1.75       8.7  T
   5    -88.7962797 -0.107742E-06  0.449E-04    1.75      29.5  T
   6    -88.7962797 -0.455771E-09  0.206E-04    1.75      64.3  T
     SCC iter.                  ...        0 min,  0.024 sec
     gradient                   ...        0 min,  0.042 sec
 * total energy  :   -87.6417642 Eh     change       -0.9201429E-04 Eh
   gradient norm :     0.0036990 Eh/α   predicted    -0.6405635E-04 ( -30.38%)
   displ. norm   :     0.1787968 α      lambda       -0.1072051E-03
   maximum displ.:     0.1092307 α      in ANC's #4, #14, #6, ...

........................................................................
.............................. CYCLE   10 ..............................
........................................................................

 iter      E             dE          RMSdq      gap      omega  full diag
   1    -88.7968137 -0.887968E+02  0.285E-02    1.76       0.0  T
   2    -88.7968151 -0.148658E-05  0.167E-02    1.76       1.0  T
   3    -88.7968147  0.484494E-06  0.478E-03    1.76       2.8  T
   4    -88.7968153 -0.598007E-06  0.146E-03    1.76       9.0  T
   5    -88.7968154 -0.105474E-06  0.456E-04    1.76      29.1  T
   6    -88.7968154 -0.137662E-08  0.208E-04    1.76      63.7  T
     SCC iter.                  ...        0 min,  0.034 sec
     gradient                   ...        0 min,  0.043 sec
 * total energy  :   -87.6418473 Eh     change       -0.8312383E-04 Eh
   gradient norm :     0.0048183 Eh/α   predicted    -0.5531863E-04 ( -33.45%)
   displ. norm   :     0.2274101 α      lambda       -0.1223717E-03
   maximum displ.:     0.1376316 α      in ANC's #4, #14, #12, ...

........................................................................
.............................. CYCLE   11 ..............................
........................................................................

 iter      E             dE          RMSdq      gap      omega  full diag
   1    -88.7966106 -0.887966E+02  0.347E-02    1.76       0.0  T
   2    -88.7966118 -0.126333E-05  0.205E-02    1.76       1.0  T
   3    -88.7966113  0.492841E-06  0.395E-03    1.76       3.4  T
   4    -88.7966120 -0.668334E-06  0.118E-03    1.76      11.3  T
   5    -88.7966120 -0.530085E-07  0.520E-04    1.76      25.5  T
   6    -88.7966121 -0.224928E-08  0.212E-04    1.76      62.5  T
     SCC iter.                  ...        0 min,  0.040 sec
     gradient                   ...        0 min,  0.043 sec
 * total energy  :   -87.6419429 Eh     change       -0.9558509E-04 Eh
   gradient norm :     0.0066016 Eh/α   predicted    -0.6435169E-04 ( -32.68%)
   displ. norm   :     0.2737486 α      lambda       -0.1389365E-03
   maximum displ.:     0.1667678 α      in ANC's #4, #14, #12, ...

........................................................................
.............................. CYCLE   12 ..............................
........................................................................

 iter      E             dE          RMSdq      gap      omega  full diag
   1    -88.7957273 -0.887957E+02  0.395E-02    1.77       0.0  T
   2    -88.7957282 -0.986968E-06  0.234E-02    1.77       1.0  T
   3    -88.7957267  0.159315E-05  0.589E-03    1.77       2.2  T
   4    -88.7957286 -0.191378E-05  0.134E-03    1.77       9.9  T
   5    -88.7957286 -0.431085E-07  0.621E-04    1.77      21.3  T
   6    -88.7957286 -0.270042E-08  0.254E-04    1.77      52.1  T
     SCC iter.                  ...        0 min,  0.021 sec
     gradient                   ...        0 min,  0.048 sec
 * total energy  :   -87.6420496 Eh     change       -0.1066456E-03 Eh
   gradient norm :     0.0073234 Eh/α   predicted    -0.7467498E-04 ( -29.98%)
   displ. norm   :     0.2782568 α      lambda       -0.1452872E-03
   maximum displ.:     0.1730151 α      in ANC's #4, #12, #2, ...

........................................................................
.............................. CYCLE   13 ..............................
........................................................................

 iter      E             dE          RMSdq      gap      omega  full diag
   1    -88.7952176 -0.887952E+02  0.380E-02    1.77       0.0  T
   2    -88.7952183 -0.716798E-06  0.223E-02    1.77       1.0  T
   3    -88.7952162  0.208785E-05  0.703E-03    1.77       1.9  T
   4    -88.7952187 -0.247144E-05  0.124E-03    1.77      10.7  T
   5    -88.7952187 -0.321496E-07  0.561E-04    1.77      23.6  T
   6    -88.7952187 -0.172405E-08  0.181E-04    1.77      73.1  T
     SCC iter.                  ...        0 min,  0.021 sec
     gradient                   ...        0 min,  0.046 sec
 * total energy  :   -87.6421590 Eh     change       -0.1094551E-03 Eh
   gradient norm :     0.0059334 Eh/α   predicted    -0.7826864E-04 ( -28.49%)
   displ. norm   :     0.2764129 α      lambda       -0.1315923E-03
   maximum displ.:     0.1769537 α      in ANC's #4, #12, #2, ...

........................................................................
.............................. CYCLE   14 ..............................
........................................................................

 iter      E             dE          RMSdq      gap      omega  full diag
   1    -88.7946179 -0.887946E+02  0.360E-02    1.77       0.0  T
   2    -88.7946190 -0.113050E-05  0.212E-02    1.77       1.0  T
   3    -88.7946171  0.188195E-05  0.710E-03    1.77       1.9  T
   4    -88.7946194 -0.223348E-05  0.155E-03    1.77       8.6  T
   5    -88.7946195 -0.935373E-07  0.609E-04    1.77      21.8  T
   6    -88.7946195 -0.149910E-08  0.207E-04    1.77      63.9  T
     SCC iter.                  ...        0 min,  0.022 sec
     gradient                   ...        0 min,  0.043 sec
 * total energy  :   -87.6422574 Eh     change       -0.9836784E-04 Eh
   gradient norm :     0.0046083 Eh/α   predicted    -0.7082556E-04 ( -28.00%)
   displ. norm   :     0.2467375 α      lambda       -0.1330181E-03
   maximum displ.:     0.1583454 α      in ANC's #4, #12, #2, ...

........................................................................
.............................. CYCLE   15 ..............................
........................................................................

 iter      E             dE          RMSdq      gap      omega  full diag
   1    -88.7961861 -0.887962E+02  0.347E-02    1.77       0.0  T
   2    -88.7961891 -0.294307E-05  0.202E-02    1.77       1.0  T
   3    -88.7961880  0.104173E-05  0.704E-03    1.77       1.9  T
   4    -88.7961894 -0.134125E-05  0.212E-03    1.77       6.2  T
   5    -88.7961896 -0.209854E-06  0.638E-04    1.77      20.8  T
   6    -88.7961896 -0.251291E-08  0.328E-04    1.77      40.4  T
     SCC iter.                  ...        0 min,  0.021 sec
     gradient                   ...        0 min,  0.044 sec
 * total energy  :   -87.6423372 Eh     change       -0.7978996E-04 Eh
   gradient norm :     0.0045895 Eh/α   predicted    -0.7056039E-04 ( -11.57%)
   displ. norm   :     0.4631728 α      lambda       -0.1604728E-03
   maximum displ.:     0.2965389 α      in ANC's #4, #12, #2, ...

........................................................................
.............................. CYCLE   16 ..............................
........................................................................

 iter      E             dE          RMSdq      gap      omega  full diag
   1    -88.7918767 -0.887919E+02  0.651E-02    1.76       0.0  T
   2    -88.7918833 -0.657588E-05  0.379E-02    1.76       1.0  T
   3    -88.7918817  0.156748E-05  0.894E-03    1.76       1.5  T
   4    -88.7918840 -0.233896E-05  0.290E-03    1.76       4.6  T
   5    -88.7918843 -0.299308E-06  0.129E-03    1.76      10.2  T
   6    -88.7918844 -0.125040E-07  0.563E-04    1.76      23.5  T
   7    -88.7918844 -0.921814E-08  0.173E-04    1.76      76.7  T
     SCC iter.                  ...        0 min,  0.026 sec
     gradient                   ...        0 min,  0.043 sec
 * total energy  :   -87.6423100 Eh     change        0.2718726E-04 Eh
   gradient norm :     0.0117857 Eh/α   predicted    -0.9744987E-04 (-458.44%)
   displ. norm   :     0.1877968 α      lambda       -0.2636607E-03
   maximum displ.:     0.1093717 α      in ANC's #4, #12, #2, ...

........................................................................
.............................. CYCLE   17 ..............................
........................................................................

 iter      E             dE          RMSdq      gap      omega  full diag
   1    -88.7959589 -0.887960E+02  0.329E-02    1.76       0.0  T
   2    -88.7959620 -0.312598E-05  0.187E-02    1.76       1.0  T
   3    -88.7959618  0.222083E-06  0.546E-03    1.76       2.4  T
   4    -88.7959622 -0.383263E-06  0.196E-03    1.76       6.7  T
   5    -88.7959623 -0.164620E-06  0.810E-04    1.76      16.4  T
   6    -88.7959623 -0.690706E-08  0.309E-04    1.76      42.8  T
     SCC iter.                  ...        0 min,  0.022 sec
     gradient                   ...        0 min,  0.077 sec
 * total energy  :   -87.6424456 Eh     change       -0.1356038E-03 Eh
   gradient norm :     0.0045383 Eh/α   predicted    -0.1364911E-03 (   0.65%)
   displ. norm   :     0.1230369 α      lambda       -0.6186783E-04
   maximum displ.:     0.0669899 α      in ANC's #4, #7, #2, ...

........................................................................
.............................. CYCLE   18 ..............................
........................................................................

 iter      E             dE          RMSdq      gap      omega  full diag
   1    -88.7966572 -0.887967E+02  0.227E-02    1.77       0.0  T
   2    -88.7966574 -0.219517E-06  0.133E-02    1.76       1.0  T
   3    -88.7966574  0.206071E-07  0.144E-03    1.76       9.2  T
   4    -88.7966575 -0.643361E-07  0.577E-04    1.76      23.0  T
   5    -88.7966575 -0.755560E-08  0.296E-04    1.76      44.7  T
     SCC iter.                  ...        0 min,  0.018 sec
     gradient                   ...        0 min,  0.072 sec
 * total energy  :   -87.6425002 Eh     change       -0.5461970E-04 Eh
   gradient norm :     0.0034248 Eh/α   predicted    -0.3140330E-04 ( -42.51%)
   displ. norm   :     0.4617050 α      lambda       -0.1857420E-03
   maximum displ.:     0.2548229 α      in ANC's #4, #2, #12, ...

........................................................................
.............................. CYCLE   19 ..............................
........................................................................

 iter      E             dE          RMSdq      gap      omega  full diag
   1    -88.7956701 -0.887957E+02  0.834E-02    1.77       0.0  T
   2    -88.7956731 -0.300980E-05  0.488E-02    1.77       1.0  T
   3    -88.7956731  0.287926E-09  0.424E-03    1.77       3.1  T
   4    -88.7956737 -0.601279E-06  0.179E-03    1.77       7.4  T
   5    -88.7956737 -0.537107E-07  0.999E-04    1.77      13.3  T
   6    -88.7956737 -0.159915E-07  0.304E-04    1.77      43.5  T
     SCC iter.                  ...        0 min,  0.022 sec
     gradient                   ...        0 min,  0.077 sec
 * total energy  :   -87.6426288 Eh     change       -0.1286060E-03 Eh
   gradient norm :     0.0027919 Eh/α   predicted    -0.1126805E-03 ( -12.38%)
   displ. norm   :     0.2808723 α      lambda       -0.6550892E-04
   maximum displ.:     0.1482707 α      in ANC's #4, #5, #2, ...

........................................................................
.............................. CYCLE   20 ..............................
........................................................................

 iter      E             dE          RMSdq      gap      omega  full diag
   1    -88.7949181 -0.887949E+02  0.541E-02    1.77       0.0  T
   2    -88.7949190 -0.922326E-06  0.316E-02    1.77       1.0  T
   3    -88.7949188  0.254785E-06  0.341E-03    1.77       3.9  T
   4    -88.7949193 -0.504117E-06  0.143E-03    1.77       9.3  T
   5    -88.7949193 -0.479928E-07  0.666E-04    1.77      19.9  T
   6    -88.7949193 -0.286344E-08  0.192E-04    1.77      69.0  T
     SCC iter.                  ...        0 min,  0.022 sec
     gradient                   ...        0 min,  0.073 sec
 * total energy  :   -87.6426742 Eh     change       -0.4534286E-04 Eh
   gradient norm :     0.0037274 Eh/α   predicted    -0.3533993E-04 ( -22.06%)
   displ. norm   :     0.1707406 α      lambda       -0.6293792E-04
   maximum displ.:     0.0863388 α      in ANC's #5, #4, #7, ...
 * RMSD in coord.:     0.4839416 α      energy gain  -0.1715096E-01 Eh

generating ANC from exact Hessian ...
Using Lindh-Hessian (1995)
 Shifting diagonal of input Hessian by    9.8706045937991069E-003
 Lowest  eigenvalues of input Hessian
    0.000000    0.000000    0.000000    0.000000    0.000000    0.000000
    0.010000    0.010165    0.010257    0.010533    0.010796    0.011553
    0.012040    0.012618    0.013084    0.013243    0.016449    0.017281
 Highest eigenvalues
    1.980261    1.981900    2.085648    2.211293    2.226049    2.386896


........................................................................
.............................. CYCLE   21 ..............................
........................................................................

 iter      E             dE          RMSdq      gap      omega  full diag
   1    -88.7962845 -0.887963E+02  0.397E-02    1.78       0.0  T
   2    -88.7962852 -0.714523E-06  0.231E-02    1.78       1.0  T
   3    -88.7962847  0.469453E-06  0.381E-03    1.78       3.5  T
   4    -88.7962854 -0.658906E-06  0.124E-03    1.78      10.7  T
   5    -88.7962854 -0.366079E-07  0.561E-04    1.78      23.6  T
   6    -88.7962854 -0.207747E-08  0.209E-04    1.78      63.4  T
     SCC iter.                  ...        0 min,  0.022 sec
     gradient                   ...        0 min,  0.074 sec
 * total energy  :   -87.6427156 Eh     change       -0.4146427E-04 Eh
   gradient norm :     0.0025037 Eh/α   predicted     0.0000000E+00 (-100.00%)
   displ. norm   :     0.0272743 α      lambda       -0.1242805E-04
   maximum displ.:     0.0161452 α      in ANC's #5, #13, #20, ...

........................................................................
.............................. CYCLE   22 ..............................
........................................................................

 iter      E             dE          RMSdq      gap      omega  full diag
   1    -88.7967447 -0.887967E+02  0.579E-03    1.78       0.0  T
   2    -88.7967448 -0.897565E-07  0.344E-03    1.78       3.8  T
   3    -88.7967448  0.438720E-07  0.122E-03    1.78      10.9  T
   4    -88.7967448 -0.583256E-07  0.358E-04    1.78      37.0  T
   5    -88.7967449 -0.522685E-08  0.117E-04    1.78     113.2  T
     SCC iter.                  ...        0 min,  0.018 sec
     gradient                   ...        0 min,  0.070 sec
 * total energy  :   -87.6427305 Eh     change       -0.1490656E-04 Eh
   gradient norm :     0.0012745 Eh/α   predicted    -0.8914999E-05 ( -40.19%)
   displ. norm   :     0.1257459 α      lambda       -0.3509397E-04
   maximum displ.:     0.0787955 α      in ANC's #5, #13, #20, ...

........................................................................
.............................. CYCLE   23 ..............................
........................................................................

 iter      E             dE          RMSdq      gap      omega  full diag
   1    -88.7973836 -0.887974E+02  0.236E-02    1.78       0.0  T
   2    -88.7973846 -0.940633E-06  0.138E-02    1.78       1.0  T
   3    -88.7973841  0.463181E-06  0.372E-03    1.78       3.6  T
   4    -88.7973847 -0.620248E-06  0.115E-03    1.78      11.6  T
   5    -88.7973848 -0.489310E-07  0.447E-04    1.78      29.6  T
   6    -88.7973848 -0.997318E-09  0.191E-04    1.78      69.4  T
     SCC iter.                  ...        0 min,  0.022 sec
     gradient                   ...        0 min,  0.076 sec
 * total energy  :   -87.6427548 Eh     change       -0.2423426E-04 Eh
   gradient norm :     0.0027156 Eh/α   predicted    -0.1767084E-04 ( -27.08%)
   displ. norm   :     0.0216027 α      lambda       -0.8531914E-05
   maximum displ.:     0.0166864 α      in ANC's #5, #12, #15, ...

........................................................................
.............................. CYCLE   24 ..............................
........................................................................

 iter      E             dE          RMSdq      gap      omega  full diag
   1    -88.7971346 -0.887971E+02  0.486E-03    1.78       0.0  T
   2    -88.7971346 -0.301575E-07  0.284E-03    1.78       4.7  T
   3    -88.7971346  0.239094E-07  0.787E-04    1.78      16.8  T
   4    -88.7971346 -0.301437E-07  0.220E-04    1.78      60.1  T
     SCC iter.                  ...        0 min,  0.015 sec
     gradient                   ...        0 min,  0.078 sec
 * total energy  :   -87.6427624 Eh     change       -0.7675964E-05 Eh
   gradient norm :     0.0019554 Eh/α   predicted    -0.4269268E-05 ( -44.38%)
   displ. norm   :     0.1067003 α      lambda       -0.2291226E-04
   maximum displ.:     0.0776215 α      in ANC's #5, #12, #15, ...

........................................................................
.............................. CYCLE   25 ..............................
........................................................................

 iter      E             dE          RMSdq      gap      omega  full diag
   1    -88.7962733 -0.887963E+02  0.237E-02    1.78       0.0  T
   2    -88.7962739 -0.668049E-06  0.138E-02    1.79       1.0  T
   3    -88.7962736  0.359786E-06  0.321E-03    1.79       4.1  T
   4    -88.7962741 -0.467073E-06  0.101E-03    1.79      13.1  T
   5    -88.7962741 -0.357873E-07  0.415E-04    1.79      31.9  T
   6    -88.7962741 -0.102602E-08  0.181E-04    1.79      73.0  T
     SCC iter.                  ...        0 min,  0.059 sec
     gradient                   ...        0 min,  0.044 sec
 * total energy  :   -87.6427819 Eh     change       -0.1947730E-04 Eh
   gradient norm :     0.0018254 Eh/α   predicted    -0.1152261E-04 ( -40.84%)
   displ. norm   :     0.0681974 α      lambda       -0.7873222E-05
   maximum displ.:     0.0489141 α      in ANC's #5, #12, #15, ...

........................................................................
.............................. CYCLE   26 ..............................
........................................................................

 iter      E             dE          RMSdq      gap      omega  full diag
   1    -88.7963376 -0.887963E+02  0.145E-02    1.79       0.0  T
   2    -88.7963376 -0.582808E-07  0.844E-03    1.79       1.6  T
   3    -88.7963377 -0.463886E-08  0.697E-04    1.79      19.0  T
   4    -88.7963377 -0.136606E-07  0.378E-04    1.79      35.0  T
     SCC iter.                  ...        0 min,  0.042 sec
     gradient                   ...        0 min,  0.041 sec
 * total energy  :   -87.6427928 Eh     change       -0.1086202E-04 Eh
   gradient norm :     0.0017698 Eh/α   predicted    -0.3948099E-05 ( -63.65%)
   displ. norm   :     0.1622690 α      lambda       -0.2116639E-04
   maximum displ.:     0.1106071 α      in ANC's #5, #12, #1, ...

........................................................................
.............................. CYCLE   27 ..............................
........................................................................

 iter      E             dE          RMSdq      gap      omega  full diag
   1    -88.7967578 -0.887968E+02  0.356E-02    1.79       0.0  T
   2    -88.7967582 -0.323317E-06  0.208E-02    1.79       1.0  T
   3    -88.7967579  0.272048E-06  0.284E-03    1.79       4.7  T
   4    -88.7967583 -0.409269E-06  0.941E-04    1.79      14.1  T
   5    -88.7967583 -0.882112E-08  0.380E-04    1.79      34.8  T
     SCC iter.                  ...        0 min,  0.045 sec
     gradient                   ...        0 min,  0.041 sec
 * total energy  :   -87.6428191 Eh     change       -0.2629232E-04 Eh
   gradient norm :     0.0008582 Eh/α   predicted    -0.1070931E-04 ( -59.27%)
   displ. norm   :     0.2692229 α      lambda       -0.2599797E-04
   maximum displ.:     0.1809445 α      in ANC's #5, #12, #1, ...

........................................................................
.............................. CYCLE   28 ..............................
........................................................................

 iter      E             dE          RMSdq      gap      omega  full diag
   1    -88.7963876 -0.887964E+02  0.605E-02    1.78       0.0  T
   2    -88.7963885 -0.894688E-06  0.353E-02    1.78       1.0  T
   3    -88.7963884  0.102167E-06  0.322E-03    1.79       4.1  T
   4    -88.7963888 -0.410712E-06  0.156E-03    1.79       8.5  T
   5    -88.7963888 -0.388867E-07  0.579E-04    1.79      22.9  T
   6    -88.7963888 -0.643800E-08  0.187E-04    1.78      70.7  T
     SCC iter.                  ...        0 min,  0.052 sec
     gradient                   ...        0 min,  0.041 sec
 * total energy  :   -87.6428473 Eh     change       -0.2820287E-04 Eh
   gradient norm :     0.0017071 Eh/α   predicted    -0.1341873E-04 ( -52.42%)
   displ. norm   :     0.2077233 α      lambda       -0.1745519E-04
   maximum displ.:     0.1410351 α      in ANC's #5, #12, #3, ...

........................................................................
.............................. CYCLE   29 ..............................
........................................................................

 iter      E             dE          RMSdq      gap      omega  full diag
   1    -88.7967024 -0.887967E+02  0.483E-02    1.78       0.0  T
   2    -88.7967030 -0.537917E-06  0.281E-02    1.78       1.0  T
   3    -88.7967031 -0.882184E-07  0.198E-03    1.78       6.7  T
   4    -88.7967032 -0.923413E-07  0.116E-03    1.78      11.4  T
   5    -88.7967032 -0.293985E-07  0.366E-04    1.78      36.1  T
   6    -88.7967032 -0.329570E-08  0.122E-04    1.78     108.9  T
     SCC iter.                  ...        0 min,  0.050 sec
     gradient                   ...        0 min,  0.043 sec
 * total energy  :   -87.6428670 Eh     change       -0.1973144E-04 Eh
   gradient norm :     0.0013847 Eh/α   predicted    -0.8897770E-05 ( -54.91%)
   displ. norm   :     0.1966466 α      lambda       -0.1393390E-04
   maximum displ.:     0.1321844 α      in ANC's #5, #12, #3, ...

........................................................................
.............................. CYCLE   30 ..............................
........................................................................

 iter      E             dE          RMSdq      gap      omega  full diag
   1    -88.7970422 -0.887970E+02  0.473E-02    1.78       0.0  T
   2    -88.7970427 -0.514002E-06  0.275E-02    1.78       1.0  T
   3    -88.7970428 -0.935971E-07  0.197E-03    1.78       6.7  T
   4    -88.7970429 -0.820874E-07  0.118E-03    1.78      11.2  T
   5    -88.7970429 -0.314983E-07  0.343E-04    1.78      38.7  T
   6    -88.7970429 -0.237968E-08  0.106E-04    1.78     124.8  T
     SCC iter.                  ...        0 min,  0.045 sec
     gradient                   ...        0 min,  0.041 sec
 * total energy  :   -87.6428829 Eh     change       -0.1590972E-04 Eh
   gradient norm :     0.0007860 Eh/α   predicted    -0.7088446E-05 ( -55.45%)
   displ. norm   :     0.1991116 α      lambda       -0.1069975E-04
   maximum displ.:     0.1324586 α      in ANC's #5, #12, #4, ...

........................................................................
.............................. CYCLE   31 ..............................
........................................................................

 iter      E             dE          RMSdq      gap      omega  full diag
   1    -88.7969481 -0.887969E+02  0.493E-02    1.78       0.0  T
   2    -88.7969487 -0.567456E-06  0.286E-02    1.78       1.0  T
   3    -88.7969487 -0.693646E-07  0.227E-03    1.78       5.8  T
   4    -88.7969489 -0.138923E-06  0.125E-03    1.78      10.6  T
   5    -88.7969489 -0.276334E-07  0.333E-04    1.78      39.8  T
   6    -88.7969489 -0.237445E-08  0.107E-04    1.78     124.2  T
     SCC iter.                  ...        0 min,  0.049 sec
     gradient                   ...        0 min,  0.043 sec
 * total energy  :   -87.6428945 Eh     change       -0.1158146E-04 Eh
   gradient norm :     0.0007044 Eh/α   predicted    -0.5447460E-05 ( -52.96%)
   displ. norm   :     0.1464208 α      lambda       -0.8113019E-05
   maximum displ.:     0.0932666 α      in ANC's #5, #4, #3, ...

........................................................................
.............................. CYCLE   32 ..............................
........................................................................

 iter      E             dE          RMSdq      gap      omega  full diag
   1    -88.7975729 -0.887976E+02  0.377E-02    1.79       0.0  T
   2    -88.7975733 -0.371413E-06  0.219E-02    1.79       1.0  T
   3    -88.7975733 -0.158394E-07  0.192E-03    1.79       6.9  T
   4    -88.7975734 -0.114446E-06  0.990E-04    1.79      13.4  T
   5    -88.7975734 -0.159802E-07  0.337E-04    1.79      39.3  T
     SCC iter.                  ...        0 min,  0.044 sec
     gradient                   ...        0 min,  0.043 sec
 * total energy  :   -87.6429023 Eh     change       -0.7838026E-05 Eh
   gradient norm :     0.0012853 Eh/α   predicted    -0.4098321E-05 ( -47.71%)
   displ. norm   :     0.1828430 α      lambda       -0.7627629E-05
   maximum displ.:     0.1182204 α      in ANC's #5, #4, #3, ...

........................................................................
.............................. CYCLE   33 ..............................
........................................................................

 iter      E             dE          RMSdq      gap      omega  full diag
   1    -88.7966131 -0.887966E+02  0.472E-02    1.79       0.0  T
   2    -88.7966138 -0.632547E-06  0.274E-02    1.79       1.0  T
   3    -88.7966138 -0.776126E-07  0.219E-03    1.79       6.1  T
   4    -88.7966140 -0.121173E-06  0.122E-03    1.79      10.8  T
   5    -88.7966140 -0.300320E-07  0.502E-04    1.79      26.4  T
   6    -88.7966140 -0.406801E-08  0.136E-04    1.79      97.3  T
     SCC iter.                  ...        0 min,  0.021 sec
     gradient                   ...        0 min,  0.042 sec
 * total energy  :   -87.6429090 Eh     change       -0.6694705E-05 Eh
   gradient norm :     0.0010202 Eh/α   predicted    -0.3873925E-05 ( -42.13%)
   displ. norm   :     0.0796347 α      lambda       -0.7314242E-05
   maximum displ.:     0.0475714 α      in ANC's #4, #5, #3, ...

........................................................................
.............................. CYCLE   34 ..............................
........................................................................

 iter      E             dE          RMSdq      gap      omega  full diag
   1    -88.7972437 -0.887972E+02  0.201E-02    1.79       0.0  T
   2    -88.7972438 -0.120049E-06  0.117E-02    1.79       1.1  T
   3    -88.7972438 -0.441659E-08  0.109E-03    1.79      12.2  T
   4    -88.7972439 -0.396311E-07  0.507E-04    1.79      26.1  T
   5    -88.7972439 -0.169152E-08  0.205E-04    1.79      64.5  T
     SCC iter.                  ...        0 min,  0.018 sec
     gradient                   ...        0 min,  0.082 sec
 * total energy  :   -87.6429177 Eh     change       -0.8666594E-05 Eh
   gradient norm :     0.0006603 Eh/α   predicted    -0.3669852E-05 ( -57.66%)
   displ. norm   :     0.1362908 α      lambda       -0.1093392E-04
   maximum displ.:     0.0846453 α      in ANC's #4, #5, #3, ...

........................................................................
.............................. CYCLE   35 ..............................
........................................................................

 iter      E             dE          RMSdq      gap      omega  full diag
   1    -88.7974570 -0.887975E+02  0.351E-02    1.80       0.0  T
   2    -88.7974573 -0.349821E-06  0.204E-02    1.80       1.0  T
   3    -88.7974574 -0.112404E-06  0.130E-03    1.80      10.2  T
   4    -88.7974574 -0.122758E-07  0.741E-04    1.80      17.9  T
   5    -88.7974574 -0.495517E-08  0.273E-04    1.80      48.5  T
     SCC iter.                  ...        0 min,  0.018 sec
     gradient                   ...        0 min,  0.083 sec
 * total energy  :   -87.6429309 Eh     change       -0.1316333E-04 Eh
   gradient norm :     0.0008836 Eh/α   predicted    -0.5515235E-05 ( -58.10%)
   displ. norm   :     0.1690971 α      lambda       -0.1233863E-04
   maximum displ.:     0.1099511 α      in ANC's #4, #5, #3, ...

........................................................................
.............................. CYCLE   36 ..............................
........................................................................

 iter      E             dE          RMSdq      gap      omega  full diag
   1    -88.7973088 -0.887973E+02  0.425E-02    1.80       0.0  T
   2    -88.7973093 -0.463354E-06  0.247E-02    1.80       1.0  T
   3    -88.7973094 -0.140064E-06  0.161E-03    1.80       8.2  T
   4    -88.7973095 -0.234775E-07  0.991E-04    1.80      13.4  T
   5    -88.7973095 -0.190090E-07  0.307E-04    1.80      43.2  T
     SCC iter.                  ...        0 min,  0.018 sec
     gradient                   ...        0 min,  0.081 sec
 * total energy  :   -87.6429463 Eh     change       -0.1543111E-04 Eh
   gradient norm :     0.0010320 Eh/α   predicted    -0.6248887E-05 ( -59.50%)
   displ. norm   :     0.2050992 α      lambda       -0.1459936E-04
   maximum displ.:     0.1368198 α      in ANC's #4, #3, #5, ...

........................................................................
.............................. CYCLE   37 ..............................
........................................................................

 iter      E             dE          RMSdq      gap      omega  full diag
   1    -88.7968594 -0.887969E+02  0.500E-02    1.80       0.0  T
   2    -88.7968601 -0.684986E-06  0.291E-02    1.80       1.0  T
   3    -88.7968602 -0.747039E-07  0.243E-03    1.81       5.4  T
   4    -88.7968604 -0.170195E-06  0.130E-03    1.80      10.2  T
   5    -88.7968604 -0.265260E-07  0.422E-04    1.80      31.4  T
   6    -88.7968604 -0.434447E-08  0.127E-04    1.80     104.3  T
     SCC iter.                  ...        0 min,  0.063 sec
     gradient                   ...        0 min,  0.041 sec
 * total energy  :   -87.6429641 Eh     change       -0.1778679E-04 Eh
   gradient norm :     0.0010081 Eh/α   predicted    -0.7438053E-05 ( -58.18%)
   displ. norm   :     0.2056030 α      lambda       -0.1418799E-04
   maximum displ.:     0.1398779 α      in ANC's #4, #3, #15, ...

........................................................................
.............................. CYCLE   38 ..............................
........................................................................

 iter      E             dE          RMSdq      gap      omega  full diag
   1    -88.7964059 -0.887964E+02  0.477E-02    1.81       0.0  T
   2    -88.7964064 -0.567684E-06  0.278E-02    1.81       1.0  T
   3    -88.7964064  0.459553E-07  0.268E-03    1.81       4.9  T
   4    -88.7964067 -0.260892E-06  0.120E-03    1.81      11.0  T
   5    -88.7964067 -0.183364E-07  0.390E-04    1.81      34.0  T
   6    -88.7964067 -0.292846E-08  0.119E-04    1.81     111.3  T
     SCC iter.                  ...        0 min,  0.054 sec
     gradient                   ...        0 min,  0.082 sec
 * total energy  :   -87.6429799 Eh     change       -0.1581085E-04 Eh
   gradient norm :     0.0011410 Eh/α   predicted    -0.7228719E-05 ( -54.28%)
   displ. norm   :     0.1544468 α      lambda       -0.1076335E-04
   maximum displ.:     0.1061450 α      in ANC's #4, #3, #5, ...

........................................................................
.............................. CYCLE   39 ..............................
........................................................................

 iter      E             dE          RMSdq      gap      omega  full diag
   1    -88.7962098 -0.887962E+02  0.363E-02    1.81       0.0  T
   2    -88.7962102 -0.389286E-06  0.211E-02    1.81       1.0  T
   3    -88.7962101  0.127171E-06  0.248E-03    1.81       5.3  T
   4    -88.7962103 -0.278677E-06  0.966E-04    1.81      13.7  T
   5    -88.7962103 -0.951022E-08  0.360E-04    1.81      36.8  T
     SCC iter.                  ...        0 min,  0.018 sec
     gradient                   ...        0 min,  0.076 sec
 * total energy  :   -87.6429920 Eh     change       -0.1210890E-04 Eh
   gradient norm :     0.0013990 Eh/α   predicted    -0.5442446E-05 ( -55.05%)
   displ. norm   :     0.1432896 α      lambda       -0.1230185E-04
   maximum displ.:     0.0999698 α      in ANC's #4, #3, #5, ...

........................................................................
.............................. CYCLE   40 ..............................
........................................................................

 iter      E             dE          RMSdq      gap      omega  full diag
   1    -88.7969242 -0.887969E+02  0.305E-02    1.81       0.0  T
   2    -88.7969245 -0.268559E-06  0.178E-02    1.81       1.0  T
   3    -88.7969243  0.137156E-06  0.222E-03    1.81       6.0  T
   4    -88.7969246 -0.232805E-06  0.756E-04    1.81      17.5  T
   5    -88.7969246 -0.615410E-08  0.358E-04    1.81      37.0  T
     SCC iter.                  ...        0 min,  0.018 sec
     gradient                   ...        0 min,  0.076 sec
 * total energy  :   -87.6430041 Eh     change       -0.1210439E-04 Eh
   gradient norm :     0.0010327 Eh/α   predicted    -0.6210307E-05 ( -48.69%)
   displ. norm   :     0.1721396 α      lambda       -0.9833327E-05
   maximum displ.:     0.1050264 α      in ANC's #4, #5, #3, ...

........................................................................
.............................. CYCLE   41 ..............................
........................................................................

 iter      E             dE          RMSdq      gap      omega  full diag
   1    -88.7964443 -0.887964E+02  0.447E-02    1.81       0.0  T
   2    -88.7964450 -0.711531E-06  0.260E-02    1.81       1.0  T
   3    -88.7964449  0.766706E-07  0.270E-03    1.81       4.9  T
   4    -88.7964452 -0.316502E-06  0.110E-03    1.81      12.0  T
   5    -88.7964452 -0.870658E-08  0.491E-04    1.81      27.0  T
   6    -88.7964452 -0.589853E-08  0.171E-04    1.81      77.6  T
     SCC iter.                  ...        0 min,  0.022 sec
     gradient                   ...        0 min,  0.082 sec
 * total energy  :   -87.6430100 Eh     change       -0.5913124E-05 Eh
   gradient norm :     0.0020402 Eh/α   predicted    -0.4985167E-05 ( -15.69%)
   displ. norm   :     0.0624174 α      lambda       -0.1072689E-04
   maximum displ.:     0.0450830 α      in ANC's #4, #9, #1, ...

........................................................................
.............................. CYCLE   42 ..............................
........................................................................

 iter      E             dE          RMSdq      gap      omega  full diag
   1    -88.7973351 -0.887973E+02  0.112E-02    1.81       0.0  T
   2    -88.7973352 -0.866364E-07  0.655E-03    1.81       2.0  T
   3    -88.7973351  0.967646E-07  0.160E-03    1.81       8.3  T
   4    -88.7973352 -0.128857E-06  0.328E-04    1.81      40.4  T
   5    -88.7973352 -0.883418E-09  0.176E-04    1.81      75.3  T
     SCC iter.                  ...        0 min,  0.018 sec
     gradient                   ...        0 min,  0.082 sec
 * total energy  :   -87.6430169 Eh     change       -0.6903304E-05 Eh
   gradient norm :     0.0013674 Eh/α   predicted    -0.5384874E-05 ( -22.00%)
   displ. norm   :     0.1395670 α      lambda       -0.9261436E-05
   maximum displ.:     0.1028719 α      in ANC's #4, #5, #3, ...
 * RMSD in coord.:     0.3379059 α      energy gain  -0.3427593E-03 Eh

generating ANC from exact Hessian ...
Using Lindh-Hessian (1995)
 Shifting diagonal of input Hessian by    9.8719530538401434E-003
 Lowest  eigenvalues of input Hessian
    0.000000    0.000000    0.000000    0.000000    0.000000    0.000000
    0.010000    0.010175    0.010254    0.010521    0.010838    0.011602
    0.012104    0.012673    0.013071    0.013254    0.016199    0.017376
 Highest eigenvalues
    1.980725    1.983431    2.087922    2.212279    2.224039    2.386094


........................................................................
.............................. CYCLE   43 ..............................
........................................................................

 iter      E             dE          RMSdq      gap      omega  full diag
   1    -88.7976517 -0.887977E+02  0.314E-02    1.81       0.0  T
   2    -88.7976521 -0.314203E-06  0.183E-02    1.81       1.0  T
   3    -88.7976520  0.225175E-07  0.183E-03    1.81       7.2  T
   4    -88.7976522 -0.135309E-06  0.764E-04    1.81      17.3  T
   5    -88.7976522 -0.380400E-08  0.295E-04    1.81      44.9  T
     SCC iter.                  ...        0 min,  0.018 sec
     gradient                   ...        0 min,  0.082 sec
 * total energy  :   -87.6430264 Eh     change       -0.9516267E-05 Eh
   gradient norm :     0.0008966 Eh/α   predicted     0.0000000E+00 (-100.00%)
   displ. norm   :     0.0175969 α      lambda       -0.3908535E-05
   maximum displ.:     0.0090901 α      in ANC's #8, #15, #5, ...

........................................................................
.............................. CYCLE   44 ..............................
........................................................................

 iter      E             dE          RMSdq      gap      omega  full diag
   1    -88.7974386 -0.887974E+02  0.455E-03    1.81       0.0  T
   2    -88.7974386 -0.325659E-07  0.265E-03    1.81       5.0  T
   3    -88.7974386  0.184731E-07  0.667E-04    1.81      19.9  T
   4    -88.7974386 -0.236131E-07  0.223E-04    1.81      59.3  T
     SCC iter.                  ...        0 min,  0.060 sec
     gradient                   ...        0 min,  0.043 sec
 * total energy  :   -87.6430303 Eh     change       -0.3896176E-05 Eh
   gradient norm :     0.0003072 Eh/α   predicted    -0.1959285E-05 ( -49.71%)
   displ. norm   :     0.0319740 α      lambda       -0.3253861E-05
   maximum displ.:     0.0156246 α      in ANC's #8, #15, #5, ...

   *** GEOMETRY OPTIMIZATION CONVERGED AFTER 44 ITERATIONS ***

------------------------------------------------------------------------
 total energy gain   :        -0.0175071 Eh      -10.9859 kcal/mol
 total RMSD          :         0.7114161 a0        0.3765 Å
 total power (kW/mol):        -1.0446582 (step)   -9.7066 (real)
------------------------------------------------------------------------

 ANCopt (total)                0 d,  0 h,  0 min,  4.736 sec
 optimizer setup                ...        0 min,  0.000 sec (  0.002%)
 model hessian                  ...        0 min,  0.132 sec (  2.795%)
 ANC generation                 ...        0 min,  0.042 sec (  0.886%)
 coordinate transformation      ...        0 min,  0.001 sec (  0.021%)
 single point calculation       ...        0 min,  4.517 sec ( 95.384%)
 optimization log               ...        0 min,  0.035 sec (  0.734%)
 hessian update                 ...        0 min,  0.001 sec (  0.024%)
 rational function              ...        0 min,  0.004 sec (  0.092%)

================
 final structure:
================
57
 xtb: 6.7.1 (edcfbbe)
O           -2.56412997410933        1.63750012825854       -1.12741708141667
C           -3.18251007940149        0.67240006136795       -0.71153561902481
C           -2.67546679506320       -0.67400062149669       -0.58273399362642
C           -1.23783350268684       -0.87742983033715       -0.95306469040282
C           -0.33425876313976       -0.64277329590694        0.26800997856080
N            1.01218382762414       -1.12684921617188        0.02768609462507
C            1.77562133899386       -0.23277827948508       -0.82305977618029
C            3.07916061673738       -0.90363759095010       -1.24049103496571
C            3.92777720453971       -1.25634664637842       -0.00889345853099
C            3.06724238516970       -2.06001157267846        0.96671212764836
C            1.74128880544039       -1.36543503552461        1.26272870239883
C            4.50777562505583       -0.01748486203310        0.58444378236419
N            4.07059305062648        0.56604464781699        1.65696216360700
O            4.82610749852535        1.68168090845972        1.91206817225510
C            5.76279583819164        1.78567411348054        0.95583108252995
C            5.62364549576288        0.71617226775788        0.05080615982924
C            6.49039470640159        0.59349389378479       -1.03301014692067
C            7.47174833731464        1.54511578594297       -1.18446408590436
C            7.57920571712237        2.59521668178916       -0.26829283617127
F            8.55876722159815        3.49825374677435       -0.46306833965142
C            6.74597803156232        2.75518888982493        0.81734568603544
C           -3.49276804169508       -1.66629521577177       -0.12132558046131
N           -4.78634531552724       -1.43484481238013        0.23126848770664
C           -5.24805936194202       -0.23365643729568        0.13037939138787
N           -4.51954020352367        0.81413858482915       -0.31363649917196
C           -5.18146040985632        2.09177515418321       -0.46101790089430
C           -6.47115681525115        1.88325986802224       -1.25046865280675
C           -7.39452675628511        0.87730144072715       -0.54375350700389
C           -6.64981247277106        0.07968137745005        0.53898834869733
C           -3.05167087917587       -3.08852036945708        0.02544564418776
H           -0.98948492095108       -0.15913901080800       -1.73515553031608
H           -1.06680593954658       -1.88717993865583       -1.32467129177465
H           -0.35209764256239        0.42715117724008        0.53276739945029
H           -0.74320964804376       -1.20153745611118        1.11460517094891
H            1.18831755239914       -0.00836304922018       -1.71446562321159
H            1.99293352115539        0.72019848821286       -0.30742672700428
H            2.84157292676997       -1.82552900164953       -1.77290190517814
H            3.63434049181942       -0.24563916074946       -1.91190567911339
H            4.77482037150881       -1.87392061472832       -0.33368962362437
H            2.85975633949569       -3.03246992635458        0.51635234837872
H            3.60731742433095       -2.21397830452040        1.90138721826924
H            1.93837140045247       -0.42968538116116        1.80831699210691
H            1.13625723488169       -2.01753754054746        1.89843363839044
H            6.39490305507009       -0.22475350334930       -1.72908505486008
H            8.17244451250048        1.50247988752975       -2.00299740042365
H            6.85594848750564        3.57466670703028        1.50640977006134
H           -4.48631281816359        2.75071950491847       -0.98736199522974
H           -5.39357140991303        2.51570527257934        0.52593759268423
H           -6.97177097741643        2.84192502066029       -1.38293933526239
H           -6.20152019641795        1.50887270426319       -2.23980388475294
H           -7.80526152666025        0.18333054495417       -1.27741075707606
H           -8.23345456382029        1.39408385733738       -0.07617558473106
H           -6.60285804172979        0.67253471631435        1.45715218416935
H           -7.16575677345895       -0.85184474723910        0.76500927441964
H           -3.84330217150000       -3.65554657432039        0.50578102249319
H           -2.84949608969642       -3.52217111720372       -0.95286396625889
H           -2.14282692825098       -3.15490631902218        0.61805912874807

 Bond Distances (Angstroems)
 ---------------------------
O1-C2=1.2193         C2-O1=1.2193         C2-C3=1.4445         C2-N25=1.4022        C3-C2=1.4445         C3-C4=1.4984         
C3-C22=1.3658        C4-C3=1.4984         C4-C5=1.5371         C4-H31=1.0905        C4-H32=1.0895        C5-C4=1.5371         
C5-N6=1.4509         C5-H33=1.1023        C5-H34=1.0937        N6-C5=1.4509         N6-C7=1.4512         N6-C11=1.4539        
C7-N6=1.4512         C7-C8=1.5243         C7-H35=1.0908        C7-H36=1.1051        C8-C7=1.5243         C8-C9=1.5367         
C8-H37=1.0908        C8-H38=1.0918        C9-C8=1.5367         C9-C10=1.5291        C9-C12=1.4910        C9-H39=1.0974        
C10-C9=1.5291        C10-C11=1.5258       C10-H40=1.0916       C10-H41=1.0904       C11-N6=1.4539        C11-C10=1.5258       
C11-H42=1.1010       C11-H43=1.0934       C12-C9=1.4910        C12-N13=1.2969       C12-C16=1.4381       N13-C12=1.2969       
N13-O14=1.3713       O14-N13=1.3713       O14-C15=1.3426       C15-O14=1.3426       C15-C16=1.4079       C15-C21=1.3877       
C16-C12=1.4381       C16-C15=1.4079       C16-C17=1.3932       C17-C16=1.3932       C17-C18=1.3753       C17-H44=1.0785       
C18-C17=1.3753       C18-C19=1.3977       C18-H45=1.0783       C19-C18=1.3977       C19-F20=1.3465       C19-C21=1.3779       
F20-C19=1.3465       C21-C15=1.3877       C21-C19=1.3779       C21-H46=1.0763       C22-C3=1.3658        C22-N23=1.3606       
C22-C30=1.4963       N23-C22=1.3606       N23-C24=1.2908       C24-N23=1.2908       C24-N25=1.3512       C24-C29=1.4933       
N25-C2=1.4022        N25-C24=1.3512       N25-C26=1.4464       C26-N25=1.4464       C26-C27=1.5264       C26-H47=1.0929       
C26-H48=1.0949       C27-C26=1.5264       C27-C28=1.5375       C27-H49=1.0896       C27-H50=1.0916       C28-C27=1.5375       
C28-C29=1.5372       C28-H51=1.0902       C28-H52=1.0906       C29-C24=1.4933       C29-C28=1.5372       C29-H53=1.0939       
C29-H54=1.0886       C30-C22=1.4963       C30-H55=1.0858       C30-H56=1.0890       C30-H57=1.0870       H31-C4=1.0905        
H32-C4=1.0895        H33-C5=1.1023        H34-C5=1.0937        H35-C7=1.0908        H36-C7=1.1051        H37-C8=1.0908        
H38-C8=1.0918        H39-C9=1.0974        H40-C10=1.0916       H41-C10=1.0904       H42-C11=1.1010       H43-C11=1.0934       
H44-C17=1.0785       H45-C18=1.0783       H46-C21=1.0763       H47-C26=1.0929       H48-C26=1.0949       H49-C27=1.0896       
H50-C27=1.0916       H51-C28=1.0902       H52-C28=1.0906       H53-C29=1.0939       H54-C29=1.0886       H55-C30=1.0858       
H56-C30=1.0890       H57-C30=1.0870       
 C  H  Rav=1.0910 sigma=0.0064  Rmin=1.0763  Rmax=1.1051    27
 C  C  Rav=1.4677 sigma=0.0636  Rmin=1.3658  Rmax=1.5375    21
 N  C  Rav=1.3893 sigma=0.0630  Rmin=1.2908  Rmax=1.4539     9
 O  C  Rav=1.2810 sigma=0.0616  Rmin=1.2193  Rmax=1.3426     2
 O  N  Rav=1.3713 sigma=0.0000  Rmin=1.3713  Rmax=1.3713     1
 F  C  Rav=1.3465 sigma=0.0000  Rmin=1.3465  Rmax=1.3465     1

 selected bond angles (degree)
 --------------------
C3-C2-O1=126.17                N25-C2-O1=120.02               N25-C2-C3=113.81               C4-C3-C2=116.19                
C22-C3-C2=119.82               C22-C3-C4=123.98               C5-C4-C3=110.30                H31-C4-C3=107.84               
H31-C4-C5=109.59               H32-C4-C3=111.15               H32-C4-C5=108.67               H32-C4-H31=109.27              
N6-C5-C4=111.29                H33-C5-C4=109.24               H33-C5-N6=112.25               H34-C5-C4=108.49               
H34-C5-N6=107.74               H34-C5-H33=107.69              C7-N6-C5=112.32                C11-N6-C5=112.30               
C11-N6-C7=109.59               C8-C7-N6=109.83                H35-C7-N6=108.82               H35-C7-C8=109.10               
H36-C7-N6=111.17               H36-C7-C8=109.82               H36-C7-H35=108.04              C9-C8-C7=110.72                
H37-C8-C7=108.62               H37-C8-C9=108.51               H38-C8-C7=109.76               H38-C8-C9=110.51               
H38-C8-H37=108.66              C10-C9-C8=108.74               C12-C9-C8=110.06               C12-C9-C10=113.68              
H39-C9-C8=108.55               H39-C9-C10=109.11              H39-C9-C12=106.56              C11-C10-C9=111.94              
H40-C10-C9=108.18              H40-C10-C11=108.69             H41-C10-C9=110.02              H41-C10-C11=109.17             
H41-C10-H40=108.78             

 selected dihedral angles (degree)
 ---------------------------------
C4-C3-C2-O1=  2.33            C4-C3-C2-N25=181.85           C22-C3-C2-O1=181.17           C22-C3-C2-N25=  0.69          
C5-C4-C3-C2= 88.76            C5-C4-C3-C22=269.97           H31-C4-C3-C2=329.12           H31-C4-C3-C22=150.33          
H32-C4-C3-C2=209.36           H32-C4-C3-C22= 30.58          N6-C5-C4-C3=166.76            N6-C5-C4-H31=285.33           
N6-C5-C4-H32= 44.68           H33-C5-C4-C3=291.25           H33-C5-C4-H31= 49.83          H33-C5-C4-H32=169.18          
H34-C5-C4-C3= 48.39           H34-C5-C4-H31=166.96          H34-C5-C4-H32=286.31          C7-N6-C5-C4= 76.57            
C7-N6-C5-H33=313.78           C7-N6-C5-H34=195.38           C11-N6-C5-C4=200.63           C11-N6-C5-H33= 77.85          
C11-N6-C5-H34=319.44          C8-C7-N6-C5=190.01            C8-C7-N6-C11= 64.45           H35-C7-N6-C5=309.37           
H35-C7-N6-C11=183.82          H36-C7-N6-C5= 68.25           H36-C7-N6-C11=302.70          C9-C8-C7-N6=300.06            
C9-C8-C7-H35=180.87           C9-C8-C7-H36= 62.62           H37-C8-C7-N6= 59.12           H37-C8-C7-H35=299.93          
H37-C8-C7-H36=181.68          H38-C8-C7-N6=177.79           H38-C8-C7-H35= 58.60          H38-C8-C7-H36=300.35          
C10-C9-C8-C7= 52.57           C10-C9-C8-H37=293.45          C10-C9-C8-H38=174.40          C12-C9-C8-C7=287.44           
C12-C9-C8-H37=168.32          C12-C9-C8-H38= 49.27          H39-C9-C8-C7=171.16           H39-C9-C8-H37= 52.04          
H39-C9-C8-H38=292.99          C11-C10-C9-C8=308.67          C11-C10-C9-C12= 71.65         C11-C10-C9-H39=190.43         
H40-C10-C9-C8= 68.39          H40-C10-C9-C12=191.37         H40-C10-C9-H39=310.15         H41-C10-C9-C8=187.10          
H41-C10-C9-C12=310.08         H41-C10-C9-H39= 68.86         
           -------------------------------------------------
          |                Final Singlepoint                |
           -------------------------------------------------

          ...................................................
          :                      SETUP                      :
          :.................................................:
          :  # basis functions                 147          :
          :  # atomic orbitals                 147          :
          :  # shells                           87          :
          :  # electrons                       158          :
          :  max. iterations                   250          :
          :  Hamiltonian                  GFN2-xTB          :
          :  restarted?                      false          :
          :  GBSA solvation                  false          :
          :  PC potential                    false          :
          :  electronic temp.          300.0000000     K    :
          :  accuracy                    1.0000000          :
          :  -> integral cutoff          0.2500000E+02      :
          :  -> integral neglect         0.1000000E-07      :
          :  -> SCF convergence          0.1000000E-05 Eh   :
          :  -> wf. convergence          0.1000000E-03 e    :
          :  Broyden damping             0.4000000          :
          :  net charge                          0          :
          :  unpaired electrons                  0          :
          ...................................................

 iter      E             dE          RMSdq      gap      omega  full diag
   1    -88.7974386 -0.887974E+02  0.980E-05    1.81       0.0  T
   2    -88.7974386 -0.391367E-10  0.585E-05    1.81     226.3  T
   3    -88.7974386 -0.146514E-10  0.393E-05    1.81     337.0  T

   *** convergence criteria satisfied after 3 iterations ***

         #    Occupation            Energy/Eh            Energy/eV
      -------------------------------------------------------------
         1        2.0000           -0.8256794             -22.4679
       ...           ...                  ...                  ...
        73        2.0000           -0.4177734             -11.3682
        74        2.0000           -0.4114240             -11.1954
        75        2.0000           -0.4069363             -11.0733
        76        2.0000           -0.3886211             -10.5749
        77        2.0000           -0.3816129             -10.3842
        78        2.0000           -0.3783600             -10.2957
        79        2.0000           -0.3423721              -9.3164 (HOMO)
        80                         -0.2757265              -7.5029 (LUMO)
        81                         -0.2522257              -6.8634
        82                         -0.2392315              -6.5098
        83                         -0.2207298              -6.0064
        84                         -0.2015338              -5.4840
       ...                                ...                  ...
       147                          0.6906528              18.7936
      -------------------------------------------------------------
                  HL-Gap            0.0666456 Eh            1.8135 eV
             Fermi-level           -0.3090493 Eh           -8.4097 eV

 SCC (total)                   0 d,  0 h,  0 min,  0.158 sec
 SCC setup                      ...        0 min,  0.001 sec (  0.321%)
 Dispersion                     ...        0 min,  0.001 sec (  0.357%)
 classical contributions        ...        0 min,  0.047 sec ( 29.839%)
 integral evaluation            ...        0 min,  0.011 sec (  6.856%)
 iterations                     ...        0 min,  0.011 sec (  6.893%)
 molecular gradient             ...        0 min,  0.088 sec ( 55.562%)
 printout                       ...        0 min,  0.000 sec (  0.167%)

         :::::::::::::::::::::::::::::::::::::::::::::::::::::
         ::                     SUMMARY                     ::
         :::::::::::::::::::::::::::::::::::::::::::::::::::::
         :: total energy             -87.643030340294 Eh    ::
         :: gradient norm              0.000307243549 Eh/a0 ::
         :: HOMO-LUMO gap              1.813518479141 eV    ::
         ::.................................................::
         :: SCC energy               -88.797348606139 Eh    ::
         :: -> isotropic ES            0.080934034657 Eh    ::
         :: -> anisotropic ES          0.005876266781 Eh    ::
         :: -> anisotropic XC          0.041400459860 Eh    ::
         :: -> dispersion             -0.062508079342 Eh    ::
         :: repulsion energy           1.154318265845 Eh    ::
         :: add. restraining           0.000000000000 Eh    ::
         :: total charge               0.000000000000 e     ::
         :::::::::::::::::::::::::::::::::::::::::::::::::::::

           -------------------------------------------------
          |                Property Printout                |
           -------------------------------------------------

    * Orbital Energies and Occupations

         #    Occupation            Energy/Eh            Energy/eV
      -------------------------------------------------------------
         1        2.0000           -0.8256794             -22.4679
       ...           ...                  ...                  ...
        67        2.0000           -0.4405276             -11.9874
        68        2.0000           -0.4378723             -11.9151
        69        2.0000           -0.4321209             -11.7586
        70        2.0000           -0.4286276             -11.6636
[...]
   F. Musil, H. Neugebauer, J. Pisarek, C. Plett, P. Pracht, F. Pultar,
   J. Seibert, P. Shushkov, S. Spicher, M. Stahn, M. Steiner, T. Strunk,
   J. Stückrath, T. Rose, and J. Unsleber
   
 * started run on 2025/05/15 at 16:36:20.467     
   ID    Z sym.   atoms
    1    8 O      1, 14
    2    6 C      2-5, 7-12, 15-19, 21, 22, 24, 26-30
    3    7 N      6, 13, 23, 25
    4    9 F      20
    5    1 H      31-57

           -------------------------------------------------
          |                Calculation Setup                |
           -------------------------------------------------

          program call               : xtb /rds/general/user/hgt20/home/callum/QDESCP/Risperidone_rdkit_conf_9/Risperidone_rdkit_conf_9.xyz --acc 1 --gfn 2 --chrg 0 --uhf 2 --etemp 300 --input /rds/general/user/hgt20/home/callum/QDESCP/Risperidone_rdkit_conf_9/Risperidone_rdkit_conf_9_xtb.inp -P 1
          hostname                   : login-c
          coordinate file            : /rds/general/user/hgt20/home/callum/QDESCP/Risperidone_rdkit_conf_9/Risperidone_rdkit_conf_9.xyz
          omp threads                :                     1


           -------------------------------------------------
          |                 G F N 2 - x T B                 |
           -------------------------------------------------

        Reference                      10.1021/acs.jctc.8b01176
      * Hamiltonian:
        H0-scaling (s, p, d)           1.850000    2.230000    2.230000
        zeta-weighting                 0.500000
      * Dispersion:
        s8                             2.700000
        a1                             0.520000
        a2                             5.000000
        s9                             5.000000
      * Repulsion:
        kExp                           1.500000    1.000000
        rExp                           1.000000
      * Coulomb:
        alpha                          2.000000
        third order                    shell-resolved
        anisotropic                    true
        a3                             3.000000
        a5                             4.000000
        cn-shift                       1.200000
        cn-exp                         4.000000
        max-rad                        5.000000


          ...................................................
          :                      SETUP                      :
          :.................................................:
          :  # basis functions                 147          :
          :  # atomic orbitals                 147          :
          :  # shells                           87          :
          :  # electrons                       158          :
          :  max. iterations                   250          :
          :  Hamiltonian                  GFN2-xTB          :
          :  restarted?                      false          :
          :  GBSA solvation                  false          :
          :  PC potential                    false          :
          :  electronic temp.          300.0000000     K    :
          :  accuracy                    1.0000000          :
          :  -> integral cutoff          0.2500000E+02      :
          :  -> integral neglect         0.1000000E-07      :
          :  -> SCF convergence          0.1000000E-05 Eh   :
          :  -> wf. convergence          0.1000000E-03 e    :
          :  Broyden damping             0.4000000          :
          :  net charge                          0          :
          :  unpaired electrons                  2          :
          ...................................................

 iter      E             dE          RMSdq      gap      omega  full diag
   1    -88.3786746 -0.883787E+02  0.346E+00    0.16       0.0  T
   2    -88.2531384  0.125536E+00  0.287E+00    0.99       1.0  T
   3    -88.3860361 -0.132898E+00  0.211E+00    1.04       1.0  T
   4    -88.4507713 -0.647352E-01  0.159E+00    0.93       1.0  T
   5    -88.3988011  0.519701E-01  0.137E+00    0.39       1.0  T
   6    -88.4028073 -0.400622E-02  0.124E+00    0.58       1.0  T
   7    -88.5810246 -0.178217E+00  0.916E-01    0.40       1.0  T
   8    -88.5809094  0.115143E-03  0.811E-01    0.20       1.0  T
   9    -88.5392975  0.416119E-01  0.905E-01    0.34       1.0  T
  10    -88.6111927 -0.718952E-01  0.625E-01    0.14       1.0  T
  11    -88.6679727 -0.567800E-01  0.282E-01    0.02       1.0  T
  12    -88.6793085 -0.113359E-01  0.694E-02    0.02       1.0  T
  13    -88.6794886 -0.180052E-03  0.390E-02    0.01       1.0  T
  14    -88.6789940  0.494583E-03  0.607E-02    0.02       1.0  T
  15    -88.6796051 -0.611109E-03  0.124E-02    0.01       1.1  T
  16    -88.6792552  0.349918E-03  0.447E-02    0.02       1.0  T
  17    -88.6795725 -0.317339E-03  0.177E-02    0.01       1.0  T
  18    -88.6796301 -0.575267E-04  0.416E-03    0.02       3.2  T
  19    -88.6796281  0.194506E-05  0.507E-03    0.02       2.6  T
  20    -88.6796307 -0.261147E-05  0.351E-03    0.02       3.8  T
  21    -88.6796331 -0.233419E-05  0.483E-04    0.02      27.4  T
  22    -88.6796331 -0.221833E-07  0.294E-04    0.02      45.1  T
  23    -88.6796331 -0.138997E-07  0.866E-05    0.02     153.0  T

   *** convergence criteria satisfied after 23 iterations ***

         #    Occupation            Energy/Eh            Energy/eV
      -------------------------------------------------------------
         1        2.0000           -0.8028799             -21.8475
       ...           ...                  ...                  ...
        74        2.0000           -0.3987581             -10.8508
        75        2.0000           -0.3973493             -10.8124
        76        1.9956           -0.3920377             -10.6679
        77        1.9409           -0.3895207             -10.5994
        78        1.9156           -0.3891556             -10.5895
        79        1.1480           -0.3852279             -10.4826
        80        0.5754           -0.2525420              -6.8720 (HOMO)
        81        0.4246           -0.2519643              -6.8563 (LUMO)
        82                         -0.2266622              -6.1678
        83                         -0.2144395              -5.8352
        84                         -0.1797908              -4.8924
        85                         -0.1246081              -3.3908
       ...                                ...                  ...
       147                          0.7014214              19.0866
      -------------------------------------------------------------
                  HL-Gap            0.0005777 Eh            0.0157 eV
             Fermi-level           -0.3195721 Eh           -8.6960 eV

 transition dipole moment (au) for excitation:          79          80
     X       Y       Z   
  -1.0321  -0.2377   0.3246  total (au/Debye):    1.108   2.816
 dE (eV)             :    3.611
 oscillator strength :  0.15351E+00

 SCC (total)                   0 d,  0 h,  0 min,  0.218 sec
 SCC setup                      ...        0 min,  0.001 sec (  0.258%)
 Dispersion                     ...        0 min,  0.001 sec (  0.426%)
 classical contributions        ...        0 min,  0.000 sec (  0.118%)
 integral evaluation            ...        0 min,  0.015 sec (  6.667%)
 iterations                     ...        0 min,  0.119 sec ( 54.819%)
 molecular gradient             ...        0 min,  0.073 sec ( 33.326%)
 printout                       ...        0 min,  0.010 sec (  4.382%)

         :::::::::::::::::::::::::::::::::::::::::::::::::::::
         ::                     SUMMARY                     ::
         :::::::::::::::::::::::::::::::::::::::::::::::::::::
         :: total energy             -87.525224815061 Eh    ::
         :: gradient norm              0.115007795013 Eh/a0 ::
         :: HOMO-LUMO gap              0.015719542420 eV    ::
         ::.................................................::
         :: SCC energy               -88.679543080905 Eh    ::
         :: -> isotropic ES            0.076736636778 Eh    ::
         :: -> anisotropic ES          0.003408397630 Eh    ::
         :: -> anisotropic XC          0.035903125169 Eh    ::
         :: -> dispersion             -0.062103958832 Eh    ::
         :: repulsion energy           1.154318265845 Eh    ::
         :: add. restraining           0.000000000000 Eh    ::
         :: total charge              -0.000000000002 e     ::
         :::::::::::::::::::::::::::::::::::::::::::::::::::::

           -------------------------------------------------
          |                Property Printout                |
           -------------------------------------------------

    * Orbital Energies and Occupations

         #    Occupation            Energy/Eh            Energy/eV
      -------------------------------------------------------------
         1        2.0000           -0.8028799             -21.8475
       ...           ...                  ...                  ...
        68        2.0000           -0.4424120             -12.0386
        69        2.0000           -0.4391771             -11.9506
        70        2.0000           -0.4310083             -11.7283
        71        2.0000           -0.4268304             -11.6146
        72        2.0000           -0.4265002             -11.6057
        73        2.0000           -0.4016337             -10.9290
        74        2.0000           -0.3987581             -10.8508
        75        2.0000           -0.3973493             -10.8124
        76        1.9956           -0.3920377             -10.6679
        77        1.9409           -0.3895207             -10.5994
        78        1.9156           -0.3891556             -10.5895
        79        1.1480           -0.3852279             -10.4826
        80        0.5754           -0.2525420              -6.8720 (HOMO)
        81        0.4246           -0.2519643              -6.8563 (LUMO)
        82                         -0.2266622              -6.1678
        83                         -0.2144395              -5.8352
        84                         -0.1797908              -4.8924
        85                         -0.1246081              -3.3908
        86                         -0.0820847              -2.2336
        87                         -0.0282633              -0.7691
        88                         -0.0089201              -0.2427
        89                          0.0061493               0.1673
        90                          0.0447606               1.2180
        91                          0.0521552               1.4192
       ...                                ...                  ...
       147                          0.7014214              19.0866
      -------------------------------------------------------------
                  HL-Gap            0.0005777 Eh            0.0157 eV
             Fermi-level           -0.3195721 Eh           -8.6960 eV

     #   Z          covCN         q      C6AA      α(0)
     1   8 O        0.858    -0.438    22.462     6.354
     2   6 C        2.781     0.253    22.746     7.812
     3   6 C        2.960    -0.058    29.431     8.898
     4   6 C        3.809    -0.059    21.635     6.621
     5   6 C        3.761     0.004    20.564     6.464
     6   7 N        2.731    -0.093    23.051     7.131
     7   6 C        3.770    -0.000    20.620     6.471
     8   6 C        3.811    -0.063    21.691     6.629
     9   6 C        3.858    -0.019    20.872     6.497
    10   6 C        3.809    -0.065    21.742     6.638
    11   6 C        3.769    -0.007    20.743     6.491
    12   6 C        3.008     0.061    26.606     8.461
    13   7 N        1.955    -0.160    25.242     7.450
    14   8 O        1.801    -0.155    16.631     5.507
    15   6 C        3.049     0.132    25.064     8.211
    16   6 C        3.031    -0.045    29.090     8.847
    17   6 C        2.914    -0.051    29.261     8.870
    18   6 C        2.920    -0.059    29.476     8.903
    19   6 C        2.797     0.158    24.570     8.120
    20   9 F        0.788    -0.228    11.526     4.010
    21   6 C        2.906    -0.084    30.115     8.998
    22   6 C        2.948     0.068    26.486     8.441
    23   7 N        1.845    -0.253    27.443     7.764
    24   6 C        2.900     0.138    24.982     8.195
    25   7 N        2.754    -0.088    22.964     7.117
    26   6 C        3.757     0.002    20.590     6.470
    27   6 C        3.805    -0.063    21.708     6.633
    28   6 C        3.803    -0.059    21.626     6.621
    29   6 C        3.812    -0.072    21.865     6.656
    30   6 C        3.760    -0.116    22.764     6.802
    31   1 H        0.924     0.065     2.145     2.291
    32   1 H        0.925     0.058     2.222     2.331
    33   1 H        0.923     0.052     2.293     2.368
    34   1 H        0.924     0.046     2.367     2.406
    35   1 H        0.924     0.054     2.273     2.358
    36   1 H        0.922     0.048     2.339     2.392
    37   1 H        0.924     0.048     2.339     2.392
    38   1 H        0.924     0.047     2.355     2.400
    39   1 H        0.924     0.044     2.394     2.420
    40   1 H        0.924     0.049     2.331     2.388
    41   1 H        0.924     0.054     2.266     2.354
    42   1 H        0.923     0.073     2.049     2.238
    43   1 H        0.924     0.048     2.348     2.397
    44   1 H        0.926     0.031     2.572     2.508
    45   1 H        0.926     0.051     2.307     2.375
    46   1 H        0.926     0.061     2.186     2.312
    47   1 H        0.924     0.081     1.973     2.197
    48   1 H        0.924     0.048     2.351     2.398
    49   1 H        0.925     0.046     2.372     2.408
    50   1 H        0.924     0.044     2.391     2.418
    51   1 H        0.924     0.044     2.395     2.420
    52   1 H        0.924     0.042     2.423     2.434
    53   1 H        0.924     0.054     2.265     2.353
    54   1 H        0.925     0.065     2.141     2.288
    55   1 H        0.925     0.065     2.146     2.291
    56   1 H        0.925     0.051     2.302     2.373
    57   1 H        0.925     0.048     2.340     2.392

 Mol. C6AA /au·bohr⁶  :      34280.344307
 Mol. C8AA /au·bohr⁸  :     797199.749731
 Mol. α(0) /au        :        281.984658


Wiberg/Mayer (AO) data.
largest (>0.10) Wiberg bond orders for each atom

 ---------------------------------------------------------------------------
     #   Z sym  total        # sym  WBO       # sym  WBO       # sym  WBO
 ---------------------------------------------------------------------------
     1   8 O    1.920 --     2 C    1.607
     2   6 C    3.919 --     1 O    1.607     3 C    1.166    25 N    1.041
     3   6 C    3.755 --    22 C    1.281     2 C    1.166     4 C    1.032
     4   6 C    3.979 --     3 C    1.032    32 H    0.965    31 H    0.963
                             5 C    0.952
     5   6 C    3.962 --     6 N    1.022    34 H    0.969     4 C    0.952
                            33 H    0.949
     6   7 N    3.242 --     5 C    1.022    11 C    1.003     7 C    1.002
     7   6 C    3.972 --     8 C    1.004     6 N    1.002    35 H    0.966
                            36 H    0.945
     8   6 C    3.987 --     7 C    1.004     9 C    0.976    37 H    0.975
                            38 H    0.974
     9   6 C    3.994 --    12 C    1.004    10 C    0.994     8 C    0.976
                            39 H    0.957
    10   6 C    3.991 --    11 C    1.004     9 C    0.994    40 H    0.974
                            41 H    0.974
    11   6 C    3.961 --    10 C    1.004     6 N    1.003    43 H    0.967
                            42 H    0.930
    12   6 C    3.875 --    13 N    1.510    16 C    1.206     9 C    1.004
    13   7 N    2.804 --    12 C    1.510    14 O    1.039
    14   8 O    2.355 --    15 C    1.110    13 N    1.039
    15   6 C    3.928 --    21 C    1.348    16 C    1.273    14 O    1.110
    16   6 C    3.946 --    15 C    1.273    17 C    1.270    12 C    1.206
    17   6 C    3.839 --    18 C    1.466    16 C    1.270    44 H    0.969
    18   6 C    3.975 --    17 C    1.466    19 C    1.364    45 H    0.968
    19   6 C    3.790 --    18 C    1.364    21 C    1.354    20 F    0.956
    20   9 F    1.070 --    19 C    0.956
    21   6 C    3.864 --    19 C    1.354    15 C    1.348    46 H    0.965
    22   6 C    3.772 --    23 N    1.299     3 C    1.281    30 C    1.026
    23   7 N    2.980 --    24 C    1.451    22 C    1.299
    24   6 C    3.798 --    23 N    1.451    25 N    1.181    29 C    1.013
    25   7 N    3.460 --    24 C    1.181     2 C    1.041    26 C    0.984
    26   6 C    3.962 --    27 C    0.997    25 N    0.984    47 H    0.963
                            48 H    0.961
    27   6 C    3.990 --    28 C    1.004    26 C    0.997    50 H    0.980
                            49 H    0.977
    28   6 C    3.989 --    27 C    1.004    29 C    0.988    51 H    0.981
                            52 H    0.980
    29   6 C    3.990 --    24 C    1.013    28 C    0.988    54 H    0.973
                            53 H    0.951
    30   6 C    3.990 --    22 C    1.026    55 H    0.983    57 H    0.968
                            56 H    0.963
    31   1 H    0.992 --     4 C    0.963
    32   1 H    0.992 --     4 C    0.965
    33   1 H    0.988 --     5 C    0.949
    34   1 H    0.997 --     5 C    0.969
    35   1 H    0.996 --     7 C    0.966
    36   1 H    0.986 --     7 C    0.945
    37   1 H    0.996 --     8 C    0.975
    38   1 H    0.997 --     8 C    0.974
    39   1 H    0.995 --     9 C    0.957
    40   1 H    0.994 --    10 C    0.974
    41   1 H    0.997 --    10 C    0.974
    42   1 H    0.973 --    11 C    0.930
    43   1 H    0.996 --    11 C    0.967
    44   1 H    0.999 --    17 C    0.969
    45   1 H    0.997 --    18 C    0.968
    46   1 H    0.996 --    21 C    0.965
    47   1 H    0.992 --    26 C    0.963
    48   1 H    0.991 --    26 C    0.961
    49   1 H    0.997 --    27 C    0.977
    50   1 H    0.998 --    27 C    0.980
    51   1 H    0.997 --    28 C    0.981
    52   1 H    0.997 --    28 C    0.980
    53   1 H    0.988 --    29 C    0.951
    54   1 H    0.995 --    29 C    0.973
    55   1 H    0.995 --    30 C    0.983
    56   1 H    0.988 --    30 C    0.963
    57   1 H    0.991 --    30 C    0.968
 ---------------------------------------------------------------------------

Topologies differ in total number of bonds
Writing topology from bond orders to xtbtopo.mol

molecular dipole:
                 x           y           z       tot (Debye)
 q only:       -3.003      -2.044      -0.159
   full:       -2.660      -1.649      -0.303       7.992
molecular quadrupole (traceless):
                xx          xy          yy          xz          yz          zz
 q only:      -12.575     -34.709       4.373      -7.653       1.007       8.202
  q+dip:      -12.776     -36.955       3.865      -9.857       5.003       8.911
   full:      -11.815     -38.151       2.206      -7.612       3.491       9.610


           -------------------------------------------------
          | TOTAL ENERGY              -87.525224815061 Eh   |
          | GRADIENT NORM               0.115007795013 Eh/α |
          | HOMO-LUMO GAP               0.015719542420 eV   |
           -------------------------------------------------

------------------------------------------------------------------------
 * finished run on 2025/05/15 at 16:36:20.702     
------------------------------------------------------------------------
 total:
 * wall-time:     0 d,  0 h,  0 min,  0.235 sec
 *  cpu-time:     0 d,  0 h,  0 min,  0.161 sec
 * ratio c/w:     0.685 speedup
 SCF:
 * wall-time:     0 d,  0 h,  0 min,  0.218 sec
 *  cpu-time:     0 d,  0 h,  0 min,  0.146 sec
 * ratio c/w:     0.671 speedup


