----- Optimization -----
      -----------------------------------------------------------      
     |                   =====================                   |     
     |                           x T B                           |     
     |                   =====================                   |     
     |                         S. Grimme                         |     
     |          Mulliken Center for Theoretical Chemistry        |     
     |                    University of Bonn                     |     
      -----------------------------------------------------------      

   * xtb version 6.7.1 (edcfbbe) compiled by 'conda@3ef47c1a292c' on 2024-11-25

   xtb is free software: you can redistribute it and/or modify it under
   the terms of the GNU Lesser General Public License as published by
   the Free Software Foundation, either version 3 of the License, or
   (at your option) any later version.
   
   xtb is distributed in the hope that it will be useful,
   but WITHOUT ANY WARRANTY; without even the implied warranty of
   MERCHANTABILITY or FITNESS FOR A PARTICULAR PURPOSE.  See the
   GNU Lesser General Public License for more details.
   
   Cite this work as:
   * C. Bannwarth, E. Caldeweyher, S. Ehlert, A. Hansen, P. Pracht,
     J. Seibert, S. Spicher, S. Grimme, WIREs Comput. Mol. Sci., 2020, 11,
     e01493. DOI: 10.1002/wcms.1493
   
   for GFN2-xTB:
   * C. Bannwarth, S. Ehlert and S. Grimme., J. Chem. Theory Comput., 2019,
     15, 1652-1671. DOI: 10.1021/acs.jctc.8b01176
   for GFN1-xTB:
   * S. Grimme, C. Bannwarth, P. Shushkov, J. Chem. Theory Comput., 2017,
     13, 1989-2009. DOI: 10.1021/acs.jctc.7b00118
   for GFN0-xTB:
   * P. Pracht, E. Caldeweyher, S. Ehlert, S. Grimme, ChemRxiv, 2019, preprint.
     DOI: 10.26434/chemrxiv.8326202.v1
   for GFN-FF:
   * S. Spicher and S. Grimme, Angew. Chem. Int. Ed., 2020, 59, 15665-15673.
     DOI: 10.1002/anie.202004239
   
   for ALPB and GBSA implicit solvation:
   * S. Ehlert, M. Stahn, S. Spicher, S. Grimme, J. Chem. Theory Comput.,
     2021, 17, 4250-4261. DOI: 10.1021/acs.jctc.1c00471
   
   for ddCOSMO and CPCM-X implicit solvation:
   * M. Stahn, S. Ehlert, S. Grimme, J. Phys. Chem. A,
     2023, XX, XXXX-XXXX. DOI: 10.1021/acs.jpca.3c04382
   
   for DFT-D4:
   * E. Caldeweyher, C. Bannwarth and S. Grimme, J. Chem. Phys., 2017,
     147, 034112. DOI: 10.1063/1.4993215
   * E. Caldeweyher, S. Ehlert, A. Hansen, H. Neugebauer, S. Spicher,
     C. Bannwarth and S. Grimme, J. Chem. Phys., 2019, 150, 154122.
     DOI: 10.1063/1.5090222
   * E. Caldeweyher, J.-M. Mewes, S. Ehlert and S. Grimme, Phys. Chem. Chem. Phys.
     2020, 22, 8499-8512. DOI: 10.1039/D0CP00502A
   
   for sTDA-xTB:
   * S. Grimme and C. Bannwarth, J. Chem. Phys., 2016, 145, 054103.
     DOI: 10.1063/1.4959605
   
   in the mass-spec context:
   * V. Asgeirsson, C. Bauer and S. Grimme, Chem. Sci., 2017, 8, 4879.
     DOI: 10.1039/c7sc00601b
   * J. Koopman and S. Grimme, ACS Omega 2019, 4, 12, 15120-15133.
     DOI: 10.1021/acsomega.9b02011
   
   for metadynamics refer to:
   * S. Grimme, J. Chem. Theory Comput., 2019, 155, 2847-2862
     DOI: 10.1021/acs.jctc.9b00143
   
   for SPH calculations refer to:
   * S. Spicher and S. Grimme, J. Chem. Theory Comput., 2021, 17, 1701-1714
     DOI: 10.1021/acs.jctc.0c01306
   
   for ONIOM refer to:
   * C. Plett, A. Katbashev, S. Ehlert, S. Grimme, M. Bursch,
     Phys. Chem. Chem. Phys., 2023, 25, 17860-17868. DOI: 10.1039/D3CP02178E
   
   for DIPRO refer to:
   * J. Kohn, N. Gildemeister, S. Grimme, D. Fazzi, A. Hansen,
     J. Chem. Phys., 2023, just accepted.
   
   for PTB refer to:
   * S. Grimme, M. Mueller, A. Hansen, J. Chem. Phys., 2023, 158, 124111.
     DOI: 10.1063/5.0137838
   
   with help from (in alphabetical order)
   P. Atkinson, C. Bannwarth, F. Bohle, G. Brandenburg, E. Caldeweyher
   M. Checinski, S. Dohm, S. Ehlert, S. Ehrlich, I. Gerasimov, C. Hölzer
   A. Katbashev, J. Kohn, J. Koopman, C. Lavigne, S. Lehtola, F. März, M. Müller,
   F. Musil, H. Neugebauer, J. Pisarek, C. Plett, P. Pracht, F. Pultar,
   J. Seibert, P. Shushkov, S. Spicher, M. Stahn, M. Steiner, T. Strunk,
   J. Stückrath, T. Rose, and J. Unsleber
   
 * started run on 2025/05/15 at 16:38:47.268     
   ID    Z sym.   atoms
    1    1 H      1, 23, 29-52
    2    6 C      2, 3, 5-13, 15-22, 24, 26
    3    7 N      4, 14
    4    8 O      25, 27, 28

           -------------------------------------------------
          |                Calculation Setup                |
           -------------------------------------------------

          program call               : xtb /rds/general/user/hgt20/home/callum/QDESCP/Yohimbine_rdkit_conf_5/Yohimbine_rdkit_conf_5.xyz --opt normal --acc 1 --gfn 2 --chrg 0 --uhf 0 -P 1
          hostname                   : login-c
          coordinate file            : /rds/general/user/hgt20/home/callum/QDESCP/Yohimbine_rdkit_conf_5/Yohimbine_rdkit_conf_5.xyz
          omp threads                :                     1


           -------------------------------------------------
          |                 G F N 2 - x T B                 |
           -------------------------------------------------

        Reference                      10.1021/acs.jctc.8b01176
      * Hamiltonian:
        H0-scaling (s, p, d)           1.850000    2.230000    2.230000
        zeta-weighting                 0.500000
      * Dispersion:
        s8                             2.700000
        a1                             0.520000
        a2                             5.000000
        s9                             5.000000
      * Repulsion:
        kExp                           1.500000    1.000000
        rExp                           1.000000
      * Coulomb:
        alpha                          2.000000
        third order                    shell-resolved
        anisotropic                    true
        a3                             3.000000
        a5                             4.000000
        cn-shift                       1.200000
        cn-exp                         4.000000
        max-rad                        5.000000


          ...................................................
          :                      SETUP                      :
          :.................................................:
          :  # basis functions                 130          :
          :  # atomic orbitals                 130          :
          :  # shells                           78          :
          :  # electrons                       138          :
          :  max. iterations                   250          :
          :  Hamiltonian                  GFN2-xTB          :
          :  restarted?                      false          :
          :  GBSA solvation                  false          :
          :  PC potential                    false          :
          :  electronic temp.          300.0000000     K    :
          :  accuracy                    1.0000000          :
          :  -> integral cutoff          0.2500000E+02      :
          :  -> integral neglect         0.1000000E-07      :
          :  -> SCF convergence          0.1000000E-05 Eh   :
          :  -> wf. convergence          0.1000000E-03 e    :
          :  Broyden damping             0.4000000          :
          :  net charge                          0          :
          :  unpaired electrons                  0          :
          ...................................................

 iter      E             dE          RMSdq      gap      omega  full diag
   1    -77.1691964 -0.771692E+02  0.384E+00    3.13       0.0  T
   2    -77.3002399 -0.131044E+00  0.229E+00    2.52       1.0  T
   3    -77.3029124 -0.267244E-02  0.124E+00    3.07       1.0  T
   4    -77.3126799 -0.976756E-02  0.458E-01    2.45       1.0  T
   5    -77.3210581 -0.837817E-02  0.134E-01    2.45       1.0  T
   6    -77.3216269 -0.568791E-03  0.569E-02    2.49       1.0  T
   7    -77.3216699 -0.429726E-04  0.250E-02    2.49       1.0  T
   8    -77.3216720 -0.215670E-05  0.116E-02    2.49       1.2  T
   9    -77.3216752 -0.311907E-05  0.333E-03    2.50       4.2  T
  10    -77.3216753 -0.926211E-07  0.147E-03    2.49       9.4  T
  11    -77.3216753 -0.240931E-07  0.722E-04    2.49      19.2  T
  12    -77.3216753 -0.785619E-08  0.285E-04    2.49      48.6  T

   *** convergence criteria satisfied after 12 iterations ***

         #    Occupation            Energy/Eh            Energy/eV
      -------------------------------------------------------------
         1        2.0000           -0.7596975             -20.6724
       ...           ...                  ...                  ...
        63        2.0000           -0.4123319             -11.2201
        64        2.0000           -0.4089185             -11.1272
        65        2.0000           -0.4062890             -11.0557
        66        2.0000           -0.4009240             -10.9097
        67        2.0000           -0.3751911             -10.2095
        68        2.0000           -0.3515974              -9.5675
        69        2.0000           -0.3480620              -9.4712 (HOMO)
        70                         -0.2564257              -6.9777 (LUMO)
        71                         -0.2267502              -6.1702
        72                         -0.1903314              -5.1792
        73                         -0.1511509              -4.1130
        74                         -0.0662260              -1.8021
       ...                                ...                  ...
       130                          0.7129275              19.3997
      -------------------------------------------------------------
                  HL-Gap            0.0916363 Eh            2.4936 eV
             Fermi-level           -0.3022438 Eh           -8.2245 eV

 SCC (total)                   0 d,  0 h,  0 min,  0.079 sec
 SCC setup                      ...        0 min,  0.000 sec (  0.603%)
 Dispersion                     ...        0 min,  0.001 sec (  0.761%)
 classical contributions        ...        0 min,  0.000 sec (  0.266%)
 integral evaluation            ...        0 min,  0.010 sec ( 12.574%)
 iterations                     ...        0 min,  0.035 sec ( 43.915%)
 molecular gradient             ...        0 min,  0.033 sec ( 41.556%)
 printout                       ...        0 min,  0.000 sec (  0.317%)

         :::::::::::::::::::::::::::::::::::::::::::::::::::::
         ::                     SUMMARY                     ::
         :::::::::::::::::::::::::::::::::::::::::::::::::::::
         :: total energy             -76.349267090258 Eh    ::
         :: gradient norm              0.085791723995 Eh/a0 ::
         :: HOMO-LUMO gap              2.493550077303 eV    ::
         ::.................................................::
         :: SCC energy               -77.321341550493 Eh    ::
         :: -> isotropic ES            0.079555013655 Eh    ::
         :: -> anisotropic ES          0.011859966297 Eh    ::
         :: -> anisotropic XC          0.028561872772 Eh    ::
         :: -> dispersion             -0.057900724030 Eh    ::
         :: repulsion energy           0.972074460235 Eh    ::
         :: add. restraining           0.000000000000 Eh    ::
         :: total charge              -0.000000000000 e     ::
         :::::::::::::::::::::::::::::::::::::::::::::::::::::

      ----------------------------------------------------------- 
     |                   =====================                   |
     |                        A N C O P T                        |
     |                   =====================                   |
     |               Approximate Normal Coordinate               |
     |                Rational Function Optimizer                |
      ----------------------------------------------------------- 
      ----------------------------------------------------------- 
     |                   =====================                   |
     |                        A N C O P T                        |
     |                   =====================                   |
     |               Approximate Normal Coordinate               |
     |                Rational Function Optimizer                |
      ----------------------------------------------------------- 

          ...................................................
          :                      SETUP                      :
          :.................................................:
          :   optimization level            normal          :
          :   max. optcycles                   200          :
          :   ANC micro-cycles                  20          :
          :   degrees of freedom               150          :
          :.................................................:
          :   RF solver                   davidson          :
          :   write xtbopt.log                true          :
          :   linear?                        false          :
          :   energy convergence         0.5000000E-05 Eh   :
          :   grad. convergence          0.1000000E-02 Eh/α :
          :   maxmium RF displ.          1.0000000          :
          :   Hlow (freq-cutoff)         0.1000000E-01      :
          :   Hmax (freq-cutoff)         5.0000000          :
          :   S6 in model hess.         20.0000000          :
          ...................................................

generating ANC from exact Hessian ...
Using Lindh-Hessian (1995)
 Shifting diagonal of input Hessian by    9.6157311932666880E-003
 Lowest  eigenvalues of input Hessian
    0.000000    0.000000    0.000000    0.000000    0.000000    0.000000
    0.010000    0.010124    0.010385    0.011277    0.011918    0.012840
    0.013680    0.014009    0.015238    0.017039    0.017795    0.018867
 Highest eigenvalues
    1.844277    1.931403    1.984343    2.041275    2.154522    2.235741


........................................................................
.............................. CYCLE    1 ..............................
........................................................................

 iter      E             dE          RMSdq      gap      omega  full diag
   1    -77.3216753 -0.773217E+02  0.133E-04    2.49       0.0  T
   2    -77.3216753 -0.161762E-09  0.858E-05    2.49     161.6  T
   3    -77.3216753 -0.795382E-10  0.569E-05    2.49     243.6  T
     SCC iter.                  ...        0 min,  0.009 sec
     gradient                   ...        0 min,  0.033 sec
 * total energy  :   -76.3492671 Eh     change       -0.1479890E-08 Eh
   gradient norm :     0.0857927 Eh/α   predicted     0.0000000E+00 (-100.00%)
   displ. norm   :     0.3140081 α      lambda       -0.1211362E-01
   maximum displ.:     0.1271028 α      in ANC's #28, #18, #12, ...

........................................................................
.............................. CYCLE    2 ..............................
........................................................................

 iter      E             dE          RMSdq      gap      omega  full diag
   1    -77.3583765 -0.773584E+02  0.174E-01    2.81       0.0  T
   2    -77.3584732 -0.966333E-04  0.103E-01    2.79       1.0  T
   3    -77.3584551  0.180878E-04  0.402E-02    2.80       1.0  T
   4    -77.3584849 -0.298744E-04  0.100E-02    2.79       1.4  T
   5    -77.3584884 -0.343326E-05  0.408E-03    2.79       3.4  T
   6    -77.3584888 -0.428464E-06  0.191E-03    2.79       7.3  T
   7    -77.3584888 -0.291918E-07  0.632E-04    2.79      22.0  T
   8    -77.3584888 -0.477841E-08  0.247E-04    2.79      56.1  T
     SCC iter.                  ...        0 min,  0.022 sec
     gradient                   ...        0 min,  0.033 sec
 * total energy  :   -76.3566414 Eh     change       -0.7374320E-02 Eh
   gradient norm :     0.0303392 Eh/α   predicted    -0.6658163E-02 (  -9.71%)
   displ. norm   :     0.2949415 α      lambda       -0.3677546E-02
   maximum displ.:     0.1010382 α      in ANC's #13, #11, #12, ...

........................................................................
.............................. CYCLE    3 ..............................
........................................................................

 iter      E             dE          RMSdq      gap      omega  full diag
   1    -77.3793184 -0.773793E+02  0.109E-01    2.93       0.0  T
   2    -77.3793557 -0.373317E-04  0.648E-02    2.93       1.0  T
   3    -77.3793515  0.420280E-05  0.226E-02    2.93       1.0  T
   4    -77.3793608 -0.922019E-05  0.399E-03    2.93       3.5  T
   5    -77.3793611 -0.306159E-06  0.198E-03    2.93       7.0  T
   6    -77.3793611 -0.783281E-07  0.938E-04    2.93      14.8  T
   7    -77.3793611 -0.848202E-08  0.374E-04    2.93      37.1  T
     SCC iter.                  ...        0 min,  0.020 sec
     gradient                   ...        0 min,  0.033 sec
 * total energy  :   -76.3585603 Eh     change       -0.1918873E-02 Eh
   gradient norm :     0.0152107 Eh/α   predicted    -0.1998733E-02 (   4.16%)
   displ. norm   :     0.1485759 α      lambda       -0.5572796E-03
   maximum displ.:     0.0546316 α      in ANC's #12, #11, #8, ...

........................................................................
.............................. CYCLE    4 ..............................
........................................................................

 iter      E             dE          RMSdq      gap      omega  full diag
   1    -77.3789220 -0.773789E+02  0.387E-02    2.87       0.0  T
   2    -77.3789272 -0.524397E-05  0.235E-02    2.89       1.0  T
   3    -77.3789256  0.161713E-05  0.821E-03    2.89       1.7  T
   4    -77.3789276 -0.194325E-05  0.306E-03    2.89       4.5  T
   5    -77.3789279 -0.367754E-06  0.822E-04    2.89      16.9  T
   6    -77.3789279 -0.109634E-07  0.410E-04    2.89      33.8  T
     SCC iter.                  ...        0 min,  0.017 sec
     gradient                   ...        0 min,  0.033 sec
 * total energy  :   -76.3589517 Eh     change       -0.3913844E-03 Eh
   gradient norm :     0.0057379 Eh/α   predicted    -0.2847913E-03 ( -27.23%)
   displ. norm   :     0.1917411 α      lambda       -0.3498495E-03
   maximum displ.:     0.0807416 α      in ANC's #8, #9, #12, ...

........................................................................
.............................. CYCLE    5 ..............................
........................................................................

 iter      E             dE          RMSdq      gap      omega  full diag
   1    -77.3781678 -0.773782E+02  0.379E-02    2.85       0.0  T
   2    -77.3781697 -0.184963E-05  0.229E-02    2.86       1.0  T
   3    -77.3781675  0.219357E-05  0.777E-03    2.86       1.8  T
   4    -77.3781702 -0.265804E-05  0.186E-03    2.86       7.5  T
   5    -77.3781703 -0.101756E-06  0.758E-04    2.86      18.3  T
   6    -77.3781703 -0.470369E-08  0.349E-04    2.86      39.8  T
     SCC iter.                  ...        0 min,  0.017 sec
     gradient                   ...        0 min,  0.033 sec
 * total energy  :   -76.3591751 Eh     change       -0.2234323E-03 Eh
   gradient norm :     0.0047951 Eh/α   predicted    -0.1813729E-03 ( -18.82%)
   displ. norm   :     0.1588431 α      lambda       -0.1493503E-03
   maximum displ.:     0.0633869 α      in ANC's #8, #14, #3, ...

........................................................................
.............................. CYCLE    6 ..............................
........................................................................

 iter      E             dE          RMSdq      gap      omega  full diag
   1    -77.3780711 -0.773781E+02  0.294E-02    2.85       0.0  T
   2    -77.3780716 -0.441860E-06  0.174E-02    2.85       1.0  T
   3    -77.3780716  0.194973E-07  0.199E-03    2.85       7.0  T
   4    -77.3780717 -0.128544E-06  0.699E-04    2.85      19.8  T
   5    -77.3780717 -0.146761E-08  0.360E-04    2.85      38.5  T
     SCC iter.                  ...        0 min,  0.015 sec
     gradient                   ...        0 min,  0.033 sec
 * total energy  :   -76.3592890 Eh     change       -0.1139198E-03 Eh
   gradient norm :     0.0056541 Eh/α   predicted    -0.7656144E-04 ( -32.79%)
   displ. norm   :     0.2402924 α      lambda       -0.1864353E-03
   maximum displ.:     0.0959304 α      in ANC's #3, #2, #8, ...

........................................................................
.............................. CYCLE    7 ..............................
........................................................................

 iter      E             dE          RMSdq      gap      omega  full diag
   1    -77.3781895 -0.773782E+02  0.428E-02    2.85       0.0  T
   2    -77.3781909 -0.142970E-05  0.253E-02    2.85       1.0  T
   3    -77.3781900  0.862560E-06  0.520E-03    2.84       2.7  T
   4    -77.3781911 -0.108189E-05  0.181E-03    2.84       7.7  T
   5    -77.3781912 -0.113529E-06  0.722E-04    2.84      19.2  T
   6    -77.3781912 -0.361658E-08  0.354E-04    2.84      39.2  T
     SCC iter.                  ...        0 min,  0.017 sec
     gradient                   ...        0 min,  0.033 sec
 * total energy  :   -76.3594233 Eh     change       -0.1343276E-03 Eh
   gradient norm :     0.0044985 Eh/α   predicted    -0.9860056E-04 ( -26.60%)
   displ. norm   :     0.2229813 α      lambda       -0.1369461E-03
   maximum displ.:     0.0978461 α      in ANC's #3, #4, #2, ...

........................................................................
.............................. CYCLE    8 ..............................
........................................................................

 iter      E             dE          RMSdq      gap      omega  full diag
   1    -77.3786062 -0.773786E+02  0.431E-02    2.85       0.0  T
   2    -77.3786073 -0.110328E-05  0.255E-02    2.85       1.0  T
   3    -77.3786057  0.163021E-05  0.652E-03    2.84       2.1  T
   4    -77.3786076 -0.195836E-05  0.155E-03    2.84       9.0  T
   5    -77.3786077 -0.703029E-07  0.684E-04    2.84      20.3  T
   6    -77.3786077 -0.238219E-08  0.324E-04    2.84      42.8  T
     SCC iter.                  ...        0 min,  0.017 sec
     gradient                   ...        0 min,  0.033 sec
 * total energy  :   -76.3595258 Eh     change       -0.1024321E-03 Eh
   gradient norm :     0.0030017 Eh/α   predicted    -0.7187794E-04 ( -29.83%)
   displ. norm   :     0.2414557 α      lambda       -0.1264490E-03
   maximum displ.:     0.1233721 α      in ANC's #4, #3, #2, ...

........................................................................
.............................. CYCLE    9 ..............................
........................................................................

 iter      E             dE          RMSdq      gap      omega  full diag
   1    -77.3791489 -0.773791E+02  0.493E-02    2.85       0.0  T
   2    -77.3791499 -0.993405E-06  0.290E-02    2.85       1.0  T
   3    -77.3791487  0.117751E-05  0.579E-03    2.84       2.4  T
   4    -77.3791502 -0.152243E-05  0.155E-03    2.84       9.0  T
   5    -77.3791503 -0.570762E-07  0.764E-04    2.84      18.2  T
   6    -77.3791503 -0.358159E-08  0.302E-04    2.84      46.0  T
     SCC iter.                  ...        0 min,  0.017 sec
     gradient                   ...        0 min,  0.033 sec
 * total energy  :   -76.3596217 Eh     change       -0.9588469E-04 Eh
   gradient norm :     0.0026059 Eh/α   predicted    -0.6691134E-04 ( -30.22%)
   displ. norm   :     0.2270648 α      lambda       -0.1059978E-03
   maximum displ.:     0.1277033 α      in ANC's #4, #3, #2, ...

........................................................................
.............................. CYCLE   10 ..............................
........................................................................

 iter      E             dE          RMSdq      gap      omega  full diag
   1    -77.3795572 -0.773796E+02  0.488E-02    2.84       0.0  T
   2    -77.3795579 -0.690755E-06  0.287E-02    2.84       1.0  T
   3    -77.3795578  0.121530E-06  0.319E-03    2.84       4.3  T
   4    -77.3795582 -0.385964E-06  0.132E-03    2.84      10.5  T
   5    -77.3795582 -0.240303E-07  0.752E-04    2.84      18.4  T
   6    -77.3795582 -0.801701E-08  0.208E-04    2.84      66.6  T
     SCC iter.                  ...        0 min,  0.018 sec
     gradient                   ...        0 min,  0.033 sec
 * total energy  :   -76.3597041 Eh     change       -0.8239257E-04 Eh
   gradient norm :     0.0029314 Eh/α   predicted    -0.5573212E-04 ( -32.36%)
   displ. norm   :     0.2253911 α      lambda       -0.9337901E-04
   maximum displ.:     0.1332194 α      in ANC's #4, #3, #2, ...

........................................................................
.............................. CYCLE   11 ..............................
........................................................................

 iter      E             dE          RMSdq      gap      omega  full diag
   1    -77.3798275 -0.773798E+02  0.481E-02    2.84       0.0  T
   2    -77.3798282 -0.702930E-06  0.283E-02    2.84       1.0  T
   3    -77.3798282 -0.337040E-07  0.265E-03    2.84       5.2  T
   4    -77.3798285 -0.238340E-06  0.118E-03    2.84      11.8  T
   5    -77.3798285 -0.895301E-08  0.663E-04    2.84      20.9  T
   6    -77.3798285 -0.625244E-08  0.171E-04    2.84      81.1  T
     SCC iter.                  ...        0 min,  0.017 sec
     gradient                   ...        0 min,  0.033 sec
 * total energy  :   -76.3597740 Eh     change       -0.6995712E-04 Eh
   gradient norm :     0.0028424 Eh/α   predicted    -0.4906827E-04 ( -29.86%)
   displ. norm   :     0.1878379 α      lambda       -0.6425315E-04
   maximum displ.:     0.1145540 α      in ANC's #4, #3, #2, ...

........................................................................
.............................. CYCLE   12 ..............................
........................................................................

 iter      E             dE          RMSdq      gap      omega  full diag
   1    -77.3799822 -0.773800E+02  0.395E-02    2.84       0.0  T
   2    -77.3799828 -0.632501E-06  0.232E-02    2.85       1.0  T
   3    -77.3799828  0.810537E-07  0.278E-03    2.85       5.0  T
   4    -77.3799830 -0.277508E-06  0.109E-03    2.85      12.7  T
   5    -77.3799831 -0.164216E-07  0.631E-04    2.85      22.0  T
   6    -77.3799831 -0.320614E-08  0.180E-04    2.85      77.2  T
     SCC iter.                  ...        0 min,  0.018 sec
     gradient                   ...        0 min,  0.033 sec
 * total energy  :   -76.3598204 Eh     change       -0.4640251E-04 Eh
   gradient norm :     0.0024059 Eh/α   predicted    -0.3326109E-04 ( -28.32%)
   displ. norm   :     0.1340593 α      lambda       -0.3909950E-04
   maximum displ.:     0.0826805 α      in ANC's #4, #3, #7, ...

........................................................................
.............................. CYCLE   13 ..............................
........................................................................

 iter      E             dE          RMSdq      gap      omega  full diag
   1    -77.3802938 -0.773803E+02  0.271E-02    2.85       0.0  T
   2    -77.3802942 -0.348152E-06  0.159E-02    2.85       1.0  T
   3    -77.3802942  0.178229E-07  0.187E-03    2.85       7.4  T
   4    -77.3802943 -0.122127E-06  0.653E-04    2.85      21.2  T
   5    -77.3802943 -0.129073E-08  0.372E-04    2.85      37.3  T
     SCC iter.                  ...        0 min,  0.014 sec
     gradient                   ...        0 min,  0.033 sec
 * total energy  :   -76.3598478 Eh     change       -0.2739521E-04 Eh
   gradient norm :     0.0015485 Eh/α   predicted    -0.1990425E-04 ( -27.34%)
   displ. norm   :     0.1547887 α      lambda       -0.2281457E-04
   maximum displ.:     0.0886296 α      in ANC's #4, #3, #7, ...

........................................................................
.............................. CYCLE   14 ..............................
........................................................................

 iter      E             dE          RMSdq      gap      omega  full diag
   1    -77.3798217 -0.773798E+02  0.325E-02    2.84       0.0  T
   2    -77.3798224 -0.704602E-06  0.192E-02    2.85       1.0  T
   3    -77.3798219  0.464274E-06  0.377E-03    2.85       3.7  T
   4    -77.3798226 -0.629894E-06  0.128E-03    2.85      10.9  T
   5    -77.3798226 -0.483876E-07  0.587E-04    2.85      23.6  T
   6    -77.3798226 -0.146370E-08  0.227E-04    2.85      61.1  T
     SCC iter.                  ...        0 min,  0.017 sec
     gradient                   ...        0 min,  0.033 sec
 * total energy  :   -76.3598646 Eh     change       -0.1674607E-04 Eh
   gradient norm :     0.0025605 Eh/α   predicted    -0.1152937E-04 ( -31.15%)
   displ. norm   :     0.0435419 α      lambda       -0.1474658E-04
   maximum displ.:     0.0164786 α      in ANC's #12, #9, #2, ...

........................................................................
.............................. CYCLE   15 ..............................
........................................................................

 iter      E             dE          RMSdq      gap      omega  full diag
   1    -77.3809709 -0.773810E+02  0.954E-03    2.87       0.0  T
   2    -77.3809713 -0.397451E-06  0.583E-03    2.86       2.4  T
   3    -77.3809713  0.488443E-07  0.253E-03    2.87       5.5  T
   4    -77.3809714 -0.118181E-06  0.591E-04    2.86      23.5  T
   5    -77.3809714 -0.919806E-08  0.278E-04    2.86      49.9  T
     SCC iter.                  ...        0 min,  0.015 sec
     gradient                   ...        0 min,  0.033 sec
 * total energy  :   -76.3598701 Eh     change       -0.5565784E-05 Eh
   gradient norm :     0.0019649 Eh/α   predicted    -0.7388187E-05 (  32.74%)
   displ. norm   :     0.0344248 α      lambda       -0.9576453E-05
   maximum displ.:     0.0210525 α      in ANC's #14, #7, #1, ...

........................................................................
.............................. CYCLE   16 ..............................
........................................................................

 iter      E             dE          RMSdq      gap      omega  full diag
   1    -77.3803177 -0.773803E+02  0.787E-03    2.85       0.0  T
   2    -77.3803179 -0.181386E-06  0.471E-03    2.85       2.9  T
   3    -77.3803178  0.786490E-07  0.243E-03    2.85       5.7  T
   4    -77.3803179 -0.136888E-06  0.579E-04    2.85      23.9  T
   5    -77.3803179 -0.125135E-07  0.189E-04    2.85      73.2  T
     SCC iter.                  ...        0 min,  0.015 sec
     gradient                   ...        0 min,  0.033 sec
 * total energy  :   -76.3598788 Eh     change       -0.8651533E-05 Eh
   gradient norm :     0.0007072 Eh/α   predicted    -0.4794420E-05 ( -44.58%)
   displ. norm   :     0.0378838 α      lambda       -0.3535820E-05
   maximum displ.:     0.0220002 α      in ANC's #7, #1, #9, ...

........................................................................
.............................. CYCLE   17 ..............................
........................................................................

 iter      E             dE          RMSdq      gap      omega  full diag
   1    -77.3803343 -0.773803E+02  0.726E-03    2.85       0.0  T
   2    -77.3803343 -0.190864E-07  0.429E-03    2.85       3.2  T
   3    -77.3803343  0.391107E-07  0.106E-03    2.85      13.0  T
   4    -77.3803343 -0.501313E-07  0.228E-04    2.85      60.9  T
   5    -77.3803343 -0.523158E-09  0.115E-04    2.85     120.8  T
     SCC iter.                  ...        0 min,  0.015 sec
     gradient                   ...        0 min,  0.033 sec
 * total energy  :   -76.3598826 Eh     change       -0.3842420E-05 Eh
   gradient norm :     0.0006940 Eh/α   predicted    -0.1772301E-05 ( -53.88%)
   displ. norm   :     0.0575449 α      lambda       -0.3839108E-05
   maximum displ.:     0.0333568 α      in ANC's #7, #1, #3, ...

   *** GEOMETRY OPTIMIZATION CONVERGED AFTER 17 ITERATIONS ***

------------------------------------------------------------------------
 total energy gain   :        -0.0106155 Eh       -6.6613 kcal/mol
 total RMSD          :         0.2838970 a0        0.1502 Å
 total power (kW/mol):        -1.6394745 (step)  -26.1427 (real)
------------------------------------------------------------------------

 ANCopt (total)                0 d,  0 h,  0 min,  1.066 sec
 optimizer setup                ...        0 min,  0.000 sec (  0.008%)
 model hessian                  ...        0 min,  0.031 sec (  2.913%)
 ANC generation                 ...        0 min,  0.002 sec (  0.217%)
 coordinate transformation      ...        0 min,  0.000 sec (  0.015%)
 single point calculation       ...        0 min,  1.026 sec ( 96.265%)
 optimization log               ...        0 min,  0.004 sec (  0.365%)
 hessian update                 ...        0 min,  0.000 sec (  0.027%)
 rational function              ...        0 min,  0.001 sec (  0.131%)

================
 final structure:
================
52
 xtb: 6.7.1 (edcfbbe)
H            0.48084654662339       -0.21833654162937       -1.60947669365471
C            0.67534247943695       -0.34895999936300       -0.51926594019806
C            1.98660580791816        0.27970113606076       -0.18008314190394
N            2.22385238334971        1.63092514233516       -0.11707963719350
C            3.53373415503926        1.83205672650073        0.21996323117278
C            4.14625108460691        0.56143886372512        0.36616965884248
C            5.49667432847694        0.48743731741873        0.70497897039576
C            6.19522896089733        1.65956498918693        0.88794867087282
C            5.57827863635388        2.90471149549120        0.74169991169498
C            4.24468746661761        3.00917826374195        0.40675394596026
C            3.13246302261963       -0.40437648197812        0.10119982354563
C            3.17289292865203       -1.89364754406059        0.08968298003302
C            1.95360773724233       -2.39218221617821       -0.68829718456767
N            0.74630529848624       -1.76369661571288       -0.18059637916417
C           -0.46661348399462       -2.44813951407439       -0.57591046306709
C           -1.65523950501643       -1.89512352797997        0.21046272433284
C           -2.94896127681243       -2.63232564013858       -0.12544173982452
C           -4.12469650236530       -2.04666618877491        0.65101537090772
C           -4.27954257768298       -0.55693119616042        0.33695863999651
C           -2.96962249752877        0.17583073790145        0.71793770363465
C           -1.79641143717094       -0.40144946490884       -0.08526392892169
C           -0.48184690648105        0.29733239110995        0.25146957470217
H           -2.01175756416010       -0.27140432644035       -1.15169319119611
C           -3.11227739793939        1.66645198112376        0.52154659047815
O           -3.29257330749318        1.99580485164793       -0.77397311370590
C           -3.46037871188075        3.37982470465545       -1.05247806497624
O           -3.09364604579047        2.48602725306703        1.40035964608682
O           -4.60354449903447       -0.43917965770094       -1.02446019496146
H           -1.43458638902438       -2.01809878927362        1.27594775869952
H            1.54461648000954        2.35567467596245       -0.26957180991295
H            5.97825478453528       -0.47201652436001        0.82147874570705
H            7.24254965313714        1.62373408417064        1.15087252394965
H            6.16026728002226        3.80161401452616        0.89487854095500
H            3.76866886455241        3.97274685040283        0.29484556779062
H            4.09101310957961       -2.25796062224801       -0.37559321718915
H            3.13470433413422       -2.27733451799123        1.11289715692802
H            1.85251291450525       -3.47261042746458       -0.56417456654180
H            2.09443843359307       -2.18342489343686       -1.76421678884308
H           -0.34861993522718       -3.51149932709316       -0.35335404750725
H           -0.66285625612167       -2.34757028568271       -1.66047441619354
H           -2.84496460885608       -3.69295067518420        0.10930955618589
H           -3.15624231058215       -2.53696562772593       -1.19222991843581
H           -3.97590744817178       -2.17340619717579        1.72399885118379
H           -5.04568004256599       -2.55421508708914        0.36379511729241
H           -5.09792886662624       -0.13718884425651        0.95034924993597
H           -2.79364011041039        0.01962149931000        1.78658487597837
H           -0.28044717336156        0.20990082455351        1.32057206440916
H           -0.54548621700042        1.35843813020004        0.00011377679464
H           -4.27213693974407        3.79197968123437       -0.45015895511957
H           -3.69091349595492        3.45229661249222       -2.11238823246988
H           -2.54286286955147        3.92468422399569       -0.82233783421143
H           -4.44421231383912        0.47068428326836       -1.30627176870666

 Bond Distances (Angstroems)
 ---------------------------
H1-C2=1.1151         C2-H1=1.1151         C2-C3=1.4932         C2-N14=1.4564        C2-C22=1.5332        C3-C2=1.4932         
C3-N4=1.3733         C3-C11=1.3638        N4-C3=1.3733         N4-C5=1.3674         N4-H30=1.0049        C5-N4=1.3674         
C5-C6=1.4181         C5-C10=1.3878        C6-C5=1.4181         C6-C7=1.3942         C6-C11=1.4251        C7-C6=1.3942         
C7-C8=1.3767         C7-H31=1.0798        C8-C7=1.3767         C8-C9=1.3973         C8-H32=1.0804        C9-C8=1.3973         
C9-C10=1.3790        C9-H33=1.0801        C10-C5=1.3878        C10-C9=1.3790        C10-H34=1.0805       C11-C3=1.3638        
C11-C6=1.4251        C11-C12=1.4899       C12-C11=1.4899       C12-C13=1.5299       C12-H35=1.0919       C12-H36=1.0935       
C13-C12=1.5299       C13-N14=1.4527       C13-H37=1.0922       C13-H38=1.1050       N14-C2=1.4564        N14-C13=1.4527       
N14-C15=1.4477       C15-N14=1.4477       C15-C16=1.5287       C15-H39=1.0928       C15-H40=1.1068       C16-C15=1.5287       
C16-C17=1.5264       C16-C21=1.5292       C16-H29=1.0950       C17-C16=1.5264       C17-C18=1.5259       C17-H41=1.0913       
C17-H42=1.0909       C18-C17=1.5259       C18-C19=1.5303       C18-H43=1.0906       C18-H44=1.0901       C19-C18=1.5303       
C19-C20=1.5485       C19-O28=1.4044       C19-H45=1.1055       C20-C19=1.5485       C20-C21=1.5345       C20-C24=1.5103       
C20-H46=1.0942       C21-C16=1.5292       C21-C20=1.5345       C21-C22=1.5264       C21-H23=1.0957       C22-C2=1.5332        
C22-C21=1.5264       C22-H47=1.0914       C22-H48=1.0923       H23-C21=1.0957       C24-C20=1.5103       C24-O25=1.3488       
C24-O27=1.2018       O25-C24=1.3488       O25-C26=1.4217       C26-O25=1.4217       C26-H49=1.0916       C26-H50=1.0871       
C26-H51=1.0916       O27-C24=1.2018       O28-C19=1.4044       O28-H52=0.9657       H29-C16=1.0950       H30-N4=1.0049        
H31-C7=1.0798        H32-C8=1.0804        H33-C9=1.0801        H34-C10=1.0805       H35-C12=1.0919       H36-C12=1.0935       
H37-C13=1.0922       H38-C13=1.1050       H39-C15=1.0928       H40-C15=1.1068       H41-C17=1.0913       H42-C17=1.0909       
H43-C18=1.0906       H44-C18=1.0901       H45-C19=1.1055       H46-C20=1.0942       H47-C22=1.0914       H48-C22=1.0923       
H49-C26=1.0916       H50-C26=1.0871       H51-C26=1.0916       H52-O28=0.9657       
 C  H  Rav=1.0927 sigma=0.0084  Rmin=1.0798  Rmax=1.1151    24
 C  C  Rav=1.4737 sigma=0.0658  Rmin=1.3638  Rmax=1.5485    21
 N  H  Rav=1.0049 sigma=0.0000  Rmin=1.0049  Rmax=1.0049     1
 N  C  Rav=1.4195 sigma=0.0403  Rmin=1.3674  Rmax=1.4564     5
 O  H  Rav=0.9657 sigma=0.0000  Rmin=0.9657  Rmax=0.9657     1
 O  C  Rav=1.3442 sigma=0.0865  Rmin=1.2018  Rmax=1.4217     4

 selected bond angles (degree)
 --------------------
C3-C2-H1=109.02                N14-C2-H1=110.46               N14-C2-C3=108.26               C22-C2-H1=108.09               
C22-C2-C3=111.78               C22-C2-N14=109.23              N4-C3-C2=125.19                C11-C3-C2=124.99               
C11-C3-N4=109.81               C5-N4-C3=108.75                H30-N4-C3=125.86               H30-N4-C5=125.37               
C6-C5-N4=107.90                C10-C5-N4=130.44               C10-C5-C6=121.66               C7-C6-C5=119.40                
C11-C6-C5=106.31               C11-C6-C7=134.29               C8-C7-C6=118.59                H31-C7-C6=120.35               
H31-C7-C8=121.05               C9-C8-C7=121.38                H32-C8-C7=119.73               H32-C8-C9=118.88               
C10-C9-C8=121.33               H33-C9-C8=119.16               H33-C9-C10=119.51              C9-C10-C5=117.64               
H34-C10-C5=121.11              H34-C10-C9=121.25              

 selected dihedral angles (degree)
 ---------------------------------
N4-C3-C2-H1= 72.83            N4-C3-C2-N14=193.04           N4-C3-C2-C22=313.39           C11-C3-C2-H1=253.50           
C11-C3-C2-N14= 13.71          C11-C3-C2-C22=134.06          C5-N4-C3-C2=180.05            C5-N4-C3-C11=359.47           
H30-N4-C3-C2=  1.49           H30-N4-C3-C11=180.90          C6-C5-N4-C3=  0.39            C6-C5-N4-H30=178.96           
C10-C5-N4-C3=180.12           C10-C5-N4-H30=358.69          C7-C6-C5-N4=179.71            C7-C6-C5-C10=359.95           
C11-C6-C5-N4=359.89           C11-C6-C5-C10=180.13          C8-C7-C6-C5=  0.00            C8-C7-C6-C11=179.78           
H31-C7-C6-C5=179.92           H31-C7-C6-C11=359.68          C9-C8-C7-C6=  0.04            C9-C8-C7-H31=180.14           
H32-C8-C7-C6=180.00           H32-C8-C7-H31=  0.10          C10-C9-C8-C7=359.93           C10-C9-C8-H32=179.97          
H33-C9-C8-C7=179.92           H33-C9-C8-H32=359.96          C9-C10-C5-N4=180.32           C9-C10-C5-C6=  0.02           
H34-C10-C5-N4=  0.41          H34-C10-C5-C6=180.11          C5-C10-C9-C8=  0.03           C5-C10-C9-H33=180.04          
H34-C10-C9-C8=179.95          H34-C10-C9-H33=359.95         
           -------------------------------------------------
          |                Final Singlepoint                |
           -------------------------------------------------

          ...................................................
          :                      SETUP                      :
          :.................................................:
          :  # basis functions                 130          :
          :  # atomic orbitals                 130          :
          :  # shells                           78          :
          :  # electrons                       138          :
          :  max. iterations                   250          :
          :  Hamiltonian                  GFN2-xTB          :
          :  restarted?                      false          :
          :  GBSA solvation                  false          :
          :  PC potential                    false          :
          :  electronic temp.          300.0000000     K    :
          :  accuracy                    1.0000000          :
          :  -> integral cutoff          0.2500000E+02      :
          :  -> integral neglect         0.1000000E-07      :
          :  -> SCF convergence          0.1000000E-05 Eh   :
          :  -> wf. convergence          0.1000000E-03 e    :
          :  Broyden damping             0.4000000          :
          :  net charge                          0          :
          :  unpaired electrons                  0          :
          ...................................................

 iter      E             dE          RMSdq      gap      omega  full diag
   1    -77.3803343 -0.773803E+02  0.417E-05    2.85       0.0  T
   2    -77.3803343 -0.247411E-10  0.279E-05    2.85     496.7  T
   3    -77.3803343 -0.215152E-10  0.164E-05    2.85     846.4  T

   *** convergence criteria satisfied after 3 iterations ***

         #    Occupation            Energy/Eh            Energy/eV
      -------------------------------------------------------------
         1        2.0000           -0.7619634             -20.7341
       ...           ...                  ...                  ...
        63        2.0000           -0.4118208             -11.2062
        64        2.0000           -0.4088346             -11.1250
        65        2.0000           -0.4055051             -11.0344
        66        2.0000           -0.4050491             -11.0219
        67        2.0000           -0.3735535             -10.1649
        68        2.0000           -0.3533715              -9.6157
        69        2.0000           -0.3511535              -9.5554 (HOMO)
        70                         -0.2462697              -6.7013 (LUMO)
        71                         -0.2227943              -6.0625
        72                         -0.1909627              -5.1964
        73                         -0.1489146              -4.0522
        74                         -0.0634416              -1.7263
       ...                                ...                  ...
       130                          0.7295465              19.8520
      -------------------------------------------------------------
                  HL-Gap            0.1048838 Eh            2.8540 eV
             Fermi-level           -0.2987116 Eh           -8.1284 eV

 SCC (total)                   0 d,  0 h,  0 min,  0.053 sec
 SCC setup                      ...        0 min,  0.000 sec (  0.775%)
 Dispersion                     ...        0 min,  0.000 sec (  0.840%)
 classical contributions        ...        0 min,  0.000 sec (  0.392%)
 integral evaluation            ...        0 min,  0.010 sec ( 18.342%)
 iterations                     ...        0 min,  0.009 sec ( 16.840%)
 molecular gradient             ...        0 min,  0.033 sec ( 62.432%)
 printout                       ...        0 min,  0.000 sec (  0.367%)

         :::::::::::::::::::::::::::::::::::::::::::::::::::::
         ::                     SUMMARY                     ::
         :::::::::::::::::::::::::::::::::::::::::::::::::::::
         :: total energy             -76.359882619258 Eh    ::
         :: gradient norm              0.000694018215 Eh/a0 ::
         :: HOMO-LUMO gap              2.854032875459 eV    ::
         ::.................................................::
         :: SCC energy               -77.379926318835 Eh    ::
         :: -> isotropic ES            0.078493511637 Eh    ::
         :: -> anisotropic ES          0.010148165215 Eh    ::
         :: -> anisotropic XC          0.026986654943 Eh    ::
         :: -> dispersion             -0.058746896581 Eh    ::
         :: repulsion energy           1.020043699577 Eh    ::
         :: add. restraining           0.000000000000 Eh    ::
         :: total charge               0.000000000000 e     ::
         :::::::::::::::::::::::::::::::::::::::::::::::::::::

           -------------------------------------------------
          |                Property Printout                |
           -------------------------------------------------

    * Orbital Energies and Occupations

         #    Occupation            Energy/Eh            Energy/eV
      -------------------------------------------------------------
         1        2.0000           -0.7619634             -20.7341
       ...           ...                  ...                  ...
        57        2.0000           -0.4430502             -12.0560
        58        2.0000           -0.4414838             -12.0134
        59        2.0000           -0.4335337             -11.7971
        60        2.0000           -0.4329738             -11.7818
        61        2.0000           -0.4265377             -11.6067
        62        2.0000           -0.4175660             -11.3625
        63        2.0000           -0.4118208             -11.2062
        64        2.0000           -0.4088346             -11.1250
        65        2.0000           -0.4055051             -11.0344
        66        2.0000           -0.4050491             -11.0219
        67        2.0000           -0.3735535             -10.1649
        68        2.0000           -0.3533715              -9.6157
        69        2.0000           -0.3511535              -9.5554 (HOMO)
        70                         -0.2462697              -6.7013 (LUMO)
        71                         -0.2227943              -6.0625
        72                         -0.1909627              -5.1964
        73                         -0.1489146              -4.0522
        74                         -0.0634416              -1.7263
        75                         -0.0120156              -0.3270
        76                          0.0039455               0.1074
        77                          0.0177455               0.4829
        78                          0.0291502               0.7932
        79                          0.0427381               1.1630
        80                          0.0518791               1.4117
       ...                                ...                  ...
       130                          0.7295465              19.8520
      -------------------------------------------------------------
                  HL-Gap            0.1048838 Eh            2.8540 eV
             Fermi-level           -0.2987116 Eh           -8.1284 eV

     #   Z          covCN         q      C6AA      α(0)
     1   1 H        0.921     0.005     2.980     2.700
     2   6 C        3.818     0.052    19.699     6.317
     3   6 C        3.089     0.027    27.297     8.564
     4   7 N        2.775    -0.119    23.594     7.214
     5   6 C        3.089     0.044    26.910     8.503
     6   6 C        3.108    -0.020    28.355     8.724
     7   6 C        2.911    -0.037    28.924     8.819
     8   6 C        2.920    -0.042    29.048     8.838
     9   6 C        2.924    -0.038    28.949     8.823
    10   6 C        2.908    -0.054    29.330     8.880
    11   6 C        3.071    -0.036    28.809     8.801
    12   6 C        3.808    -0.059    21.635     6.621
    13   6 C        3.764     0.013    20.397     6.438
    14   7 N        2.739    -0.180    24.896     7.411
    15   6 C        3.767     0.011    20.422     6.441
    16   6 C        3.863    -0.027    21.014     6.519
    17   6 C        3.808    -0.063    21.707     6.632
    18   6 C        3.806    -0.064    21.718     6.634
    19   6 C        3.729     0.125    18.635     6.163
    20   6 C        3.858    -0.063    21.674     6.621
    21   6 C        3.864    -0.015    20.793     6.484
    22   6 C        3.812    -0.060    21.653     6.623
    23   1 H        0.924     0.049     2.329     2.386
    24   6 C        2.721     0.351    21.033     7.508
    25   8 O        1.704    -0.273    18.536     5.813
    26   6 C        3.653     0.034    20.312     6.472
    27   8 O        0.856    -0.402    21.728     6.250
    28   8 O        1.656    -0.444    21.726     6.292
    29   1 H        0.924     0.045     2.378     2.412
    30   1 H        0.860     0.154     1.372     1.835
    31   1 H        0.926     0.026     2.639     2.541
    32   1 H        0.926     0.024     2.669     2.555
    33   1 H        0.926     0.025     2.654     2.548
    34   1 H        0.926     0.020     2.726     2.582
    35   1 H        0.924     0.040     2.452     2.449
    36   1 H        0.924     0.048     2.351     2.398
    37   1 H        0.924     0.032     2.559     2.501
    38   1 H        0.922     0.006     2.954     2.688
    39   1 H        0.924     0.035     2.515     2.480
    40   1 H        0.922     0.005     2.966     2.693
    41   1 H        0.924     0.037     2.494     2.470
    42   1 H        0.924     0.055     2.260     2.351
    43   1 H        0.924     0.037     2.487     2.466
    44   1 H        0.925     0.056     2.242     2.342
    45   1 H        0.922     0.010     2.884     2.656
    46   1 H        0.924     0.060     2.200     2.319
    47   1 H        0.924     0.049     2.338     2.391
    48   1 H        0.924     0.022     2.705     2.572
    49   1 H        0.924     0.066     2.130     2.282
    50   1 H        0.925     0.069     2.098     2.265
    51   1 H        0.924     0.061     2.183     2.311
    52   1 H        0.805     0.302     0.715     1.328

 Mol. C6AA /au·bohr⁶  :      27250.137954
 Mol. C8AA /au·bohr⁸  :     629295.092225
 Mol. α(0) /au        :        250.924428


Wiberg/Mayer (AO) data.
largest (>0.10) Wiberg bond orders for each atom

 ---------------------------------------------------------------------------
     #   Z sym  total        # sym  WBO       # sym  WBO       # sym  WBO
 ---------------------------------------------------------------------------
     1   1 H    0.996 --     2 C    0.936
     2   6 C    3.988 --     3 C    1.001    14 N    0.994    22 C    0.981
                             1 H    0.936
     3   6 C    3.950 --    11 C    1.555     4 N    1.170     2 C    1.001
     4   7 N    3.523 --     3 C    1.170     5 C    1.169    30 H    0.945
     5   6 C    3.956 --    10 C    1.346     6 C    1.242     4 N    1.169
     6   6 C    3.984 --     7 C    1.333     5 C    1.242    11 C    1.207
     7   6 C    3.989 --     8 C    1.501     6 C    1.333    31 H    0.970
                            10 C    0.111
     8   6 C    3.991 --     7 C    1.501     9 C    1.375    32 H    0.972
     9   6 C    3.988 --    10 C    1.486     8 C    1.375    33 H    0.972
    10   6 C    3.987 --     9 C    1.486     5 C    1.346    34 H    0.969
                             7 C    0.111
    11   6 C    3.974 --     3 C    1.555     6 C    1.207    12 C    1.015
    12   6 C    3.997 --    11 C    1.015    13 C    0.999    35 H    0.969
                            36 H    0.963
    13   6 C    3.986 --    14 N    1.001    12 C    0.999    37 H    0.973
                            38 H    0.966
    14   7 N    3.125 --    15 C    1.006    13 C    1.001     2 C    0.994
    15   6 C    3.986 --    14 N    1.006    16 C    0.990    39 H    0.970
                            40 H    0.961
    16   6 C    3.994 --    17 C    0.997    15 C    0.990    21 C    0.985
                            29 H    0.964
    17   6 C    3.995 --    18 C    1.008    16 C    0.997    41 H    0.976
                            42 H    0.974
    18   6 C    3.995 --    17 C    1.008    19 C    0.989    43 H    0.977
                            44 H    0.973
    19   6 C    3.961 --    28 O    1.005    18 C    0.989    45 H    0.959
                            20 C    0.947
    20   6 C    3.989 --    21 C    0.967    24 C    0.967    46 H    0.962
                            19 C    0.947
    21   6 C    3.991 --    22 C    0.996    16 C    0.985    20 C    0.967
                            23 H    0.962
    22   6 C    3.994 --    21 C    0.996     2 C    0.981    47 H    0.975
                            48 H    0.972
    23   1 H    0.998 --    21 C    0.962
    24   6 C    3.911 --    27 O    1.766    25 O    1.102    20 C    0.967
    25   8 O    2.297 --    24 C    1.102    26 C    0.954    27 O    0.167
    26   6 C    3.925 --    50 H    0.982    51 H    0.978    49 H    0.977
                            25 O    0.954
    27   8 O    2.045 --    24 C    1.766    25 O    0.167
    28   8 O    1.966 --    19 C    1.005    52 H    0.873
    29   1 H    0.998 --    16 C    0.964
    30   1 H    0.976 --     4 N    0.945
    31   1 H    0.999 --     7 C    0.970
    32   1 H    0.999 --     8 C    0.972
    33   1 H    0.999 --     9 C    0.972
    34   1 H    0.999 --    10 C    0.969
    35   1 H    0.998 --    12 C    0.969
    36   1 H    0.997 --    12 C    0.963
    37   1 H    0.998 --    13 C    0.973
    38   1 H    1.000 --    13 C    0.966
    39   1 H    0.998 --    15 C    0.970
    40   1 H    1.000 --    15 C    0.961
    41   1 H    0.998 --    17 C    0.976
    42   1 H    0.997 --    17 C    0.974
    43   1 H    0.999 --    18 C    0.977
    44   1 H    0.995 --    18 C    0.973
    45   1 H    0.999 --    19 C    0.959
    46   1 H    0.996 --    20 C    0.962
    47   1 H    0.998 --    22 C    0.975
    48   1 H    0.999 --    22 C    0.972
    49   1 H    0.996 --    26 C    0.977
    50   1 H    0.995 --    26 C    0.982
    51   1 H    0.996 --    26 C    0.978
    52   1 H    0.909 --    28 O    0.873
 ---------------------------------------------------------------------------

Topologies differ in total number of bonds
Writing topology from bond orders to xtbtopo.mol

molecular dipole:
                 x           y           z       tot (Debye)
 q only:       -0.417      -0.174      -0.613
   full:       -0.633       0.240      -0.939       2.942
molecular quadrupole (traceless):
                xx          xy          yy          xz          yz          zz
 q only:       -8.918      -4.476      10.455       2.749     -11.535      -1.537
  q+dip:      -11.219      -8.008      13.251       2.218     -12.407      -2.033
   full:      -11.294      -7.717      12.534       1.054     -12.345      -1.239

           -------------------------------------------------
          |                Geometry Summary                 |
           -------------------------------------------------

      molecular mass/u    :      354.4435346
   center of mass at/Å    :        0.1041613       0.2044158       0.0660906
  moments of inertia/u·Å² :        0.1324746E+04   0.4368211E+04   0.5400688E+04
rotational constants/cm⁻¹ :        0.1272518E-01   0.3859162E-02   0.3121386E-02

 * 54 selected distances

     #   Z          #   Z                                           value/Å
     1   1 H        2   6 C                                       1.1151013
     2   6 C        3   6 C                                       1.4932085
     3   6 C        4   7 N                                       1.3733397
     4   7 N        5   6 C                                       1.3674218
     5   6 C        6   6 C                                       1.4181056
     6   6 C        7   6 C                                       1.3942422
     7   6 C        8   6 C                                       1.3767135
     8   6 C        9   6 C                                       1.3972854
     5   6 C       10   6 C                                       1.3877899
     9   6 C       10   6 C                                       1.3789735
     3   6 C       11   6 C                                       1.3638443
     6   6 C       11   6 C                                       1.4250526
    11   6 C       12   6 C                                       1.4898644
    12   6 C       13   6 C                                       1.5298519
     2   6 C       14   7 N                                       1.4564384
    13   6 C       14   7 N                                       1.4526988
    14   7 N       15   6 C                                       1.4477250
    15   6 C       16   6 C                                       1.5287386
    16   6 C       17   6 C                                       1.5264387
    17   6 C       18   6 C                                       1.5258560
    18   6 C       19   6 C                                       1.5303332
    16   6 C       21   6 C                                       1.5291980
    20   6 C       21   6 C                                       1.5345390 (max)
     2   6 C       22   6 C                                       1.5332367
    21   6 C       22   6 C                                       1.5263571
    21   6 C       23   1 H                                       1.0956995
    24   6 C       25   8 O                                       1.3488334
    25   8 O       26   6 C                                       1.4217014
    24   6 C       27   8 O                                       1.2018167
    19   6 C       28   8 O                                       1.4043875
    16   6 C       29   1 H                                       1.0950202
     4   7 N       30   1 H                                       1.0049265
     7   6 C       31   1 H                                       1.0798351
     8   6 C       32   1 H                                       1.0804137
     9   6 C       33   1 H                                       1.0800967
    10   6 C       34   1 H                                       1.0805470
    12   6 C       35   1 H                                       1.0918566
    12   6 C       36   1 H                                       1.0934539
    13   6 C       37   1 H                                       1.0922234
    13   6 C       38   1 H                                       1.1049960
    15   6 C       39   1 H                                       1.0927892
    15   6 C       40   1 H                                       1.1067541
    17   6 C       41   1 H                                       1.0912604
    17   6 C       42   1 H                                       1.0909153
    18   6 C       43   1 H                                       1.0906397
    18   6 C       44   1 H                                       1.0900974
    19   6 C       45   1 H                                       1.1055261
    20   6 C       46   1 H                                       1.0942477
    22   6 C       47   1 H                                       1.0914149
    22   6 C       48   1 H                                       1.0923256
    26   6 C       49   1 H                                       1.0916097
    26   6 C       50   1 H                                       1.0871100
    26   6 C       51   1 H                                       1.0916373
    28   8 O       52   1 H                                       0.9657417 (min)

 * 6 distinct bonds (by element types)

   Z      Z             #   av. dist./Å        max./Å        min./Å
   1 H    6 C          24     1.0927321     1.1151013     1.0798351
   6 C    6 C          19     1.4678752     1.5345390     1.3638443
   1 H    7 N           1     1.0049265     1.0049265     1.0049265
   6 C    7 N           5     1.4195248     1.4564384     1.3674218
   1 H    8 O           1     0.9657417     0.9657417     0.9657417
   6 C    8 O           4     1.3441848     1.4217014     1.2018167


optimized geometry written to: xtbopt.xyz


           -------------------------------------------------
          | TOTAL ENERGY              -76.359882619258 Eh   |
          | GRADIENT NORM               0.000694018215 Eh/α |
          | HOMO-LUMO GAP               2.854032875459 eV   |
           -------------------------------------------------

------------------------------------------------------------------------
 * finished run on 2025/05/15 at 16:38:48.486     
------------------------------------------------------------------------
 total:
 * wall-time:     0 d,  0 h,  0 min,  1.218 sec
 *  cpu-time:     0 d,  0 h,  0 min,  1.209 sec
 * ratio c/w:     0.992 speedup
 SCF:
 * wall-time:     0 d,  0 h,  0 min,  0.080 sec
 *  cpu-time:     0 d,  0 h,  0 min,  0.079 sec
 * ratio c/w:     0.996 speedup
 ANC optimizer:
 * wall-time:     0 d,  0 h,  0 min,  1.123 sec
 *  cpu-time:     0 d,  0 h,  0 min,  1.115 sec
 * ratio c/w:     0.993 speedup



----- Single-point -----
      -----------------------------------------------------------      
     |                   =====================                   |     
     |                           x T B                           |     
     |                   =====================                   |     
     |                         S. Grimme                         |     
     |          Mulliken Center for Theoretical Chemistry        |     
     |                    University of Bonn                     |     
      -----------------------------------------------------------      

   * xtb version 6.7.1 (edcfbbe) compiled by 'conda@3ef47c1a292c' on 2024-11-25

   xtb is free software: you can redistribute it and/or modify it under
   the terms of the GNU Lesser General Public License as published by
   the Free Software Foundation, either version 3 of the License, or
   (at your option) any later version.
   
   xtb is distributed in the hope that it will be useful,
   but WITHOUT ANY WARRANTY; without even the implied warranty of
   MERCHANTABILITY or FITNESS FOR A PARTICULAR PURPOSE.  See the
   GNU Lesser General Public License for more details.
   
   Cite this work as:
   * C. Bannwarth, E. Caldeweyher, S. Ehlert, A. Hansen, P. Pracht,
     J. Seibert, S. Spicher, S. Grimme, WIREs Comput. Mol. Sci., 2020, 11,
     e01493. DOI: 10.1002/wcms.1493
   
   for GFN2-xTB:
   * C. Bannwarth, S. Ehlert and S. Grimme., J. Chem. Theory Comput., 2019,
     15, 1652-1671. DOI: 10.1021/acs.jctc.8b01176
   for GFN1-xTB:
   * S. Grimme, C. Bannwarth, P. Shushkov, J. Chem. Theory Comput., 2017,
     13, 1989-2009. DOI: 10.1021/acs.jctc.7b00118
   for GFN0-xTB:
   * P. Pracht, E. Caldeweyher, S. Ehlert, S. Grimme, ChemRxiv, 2019, preprint.
     DOI: 10.26434/chemrxiv.8326202.v1
   for GFN-FF:
   * S. Spicher and S. Grimme, Angew. Chem. Int. Ed., 2020, 59, 15665-15673.
     DOI: 10.1002/anie.202004239
   
   for ALPB and GBSA implicit solvation:
   * S. Ehlert, M. Stahn, S. Spicher, S. Grimme, J. Chem. Theory Comput.,
     2021, 17, 4250-4261. DOI: 10.1021/acs.jctc.1c00471
   
   for ddCOSMO and CPCM-X implicit solvation:
   * M. Stahn, S. Ehlert, S. Grimme, J. Phys. Chem. A,
     2023, XX, XXXX-XXXX. DOI: 10.1021/acs.jpca.3c04382
   
   for DFT-D4:
   * E. Caldeweyher, C. Bannwarth and S. Grimme, J. Chem. Phys., 2017,
     147, 034112. DOI: 10.1063/1.4993215
   * E. Caldeweyher, S. Ehlert, A. Hansen, H. Neugebauer, S. Spicher,
     C. Bannwarth and S. Grimme, J. Chem. Phys., 2019, 150, 154122.
     DOI: 10.1063/1.5090222
   * E. Caldeweyher, J.-M. Mewes, S. Ehlert and S. Grimme, Phys. Chem. Chem. Phys.
     2020, 22, 8499-8512. DOI: 10.1039/D0CP00502A
   
   for sTDA-xTB:
   * S. Grimme and C. Bannwarth, J. Chem. Phys., 2016, 145, 054103.
     DOI: 10.1063/1.4959605
   
   in the mass-spec context:
   * V. Asgeirsson, C. Bauer and S. Grimme, Chem. Sci., 2017, 8, 4879.
     DOI: 10.1039/c7sc00601b
   * J. Koopman and S. Grimme, ACS Omega 2019, 4, 12, 15120-15133.
     DOI: 10.1021/acsomega.9b02011
   
   for metadynamics refer to:
   * S. Grimme, J. Chem. Theory Comput., 2019, 155, 2847-2862
     DOI: 10.1021/acs.jctc.9b00143
   
   for SPH calculations refer to:
   * S. Spicher and S. Grimme, J. Chem. Theory Comput., 2021, 17, 1701-1714
     DOI: 10.1021/acs.jctc.0c01306
   
   for ONIOM refer to:
   * C. Plett, A. Katbashev, S. Ehlert, S. Grimme, M. Bursch,
     Phys. Chem. Chem. Phys., 2023, 25, 17860-17868. DOI: 10.1039/D3CP02178E
   
   for DIPRO refer to:
   * J. Kohn, N. Gildemeister, S. Grimme, D. Fazzi, A. Hansen,
     J. Chem. Phys., 2023, just accepted.
   
   for PTB refer to:
   * S. Grimme, M. Mueller, A. Hansen, J. Chem. Phys., 2023, 158, 124111.
     DOI: 10.1063/5.0137838
   
   with help from (in alphabetical order)
   P. Atkinson, C. Bannwarth, F. Bohle, G. Brandenburg, E. Caldeweyher
   M. Checinski, S. Dohm, S. Ehlert, S. Ehrlich, I. Gerasimov, C. Hölzer
   A. Katbashev, J. Kohn, J. Koopman, C. Lavigne, S. Lehtola, F. März, M. Müller,
   F. Musil, H. Neugebauer, J. Pisarek, C. Plett, P. Pracht, F. Pultar,
   J. Seibert, P. Shushkov, S. Spicher, M. Stahn, M. Steiner, T. Strunk,
   J. Stückrath, T. Rose, and J. Unsleber
   
 * started run on 2025/05/15 at 16:38:48.499     
   ID    Z sym.   atoms
    1    1 H      1, 23, 29-52
    2    6 C      2, 3, 5-13, 15-22, 24, 26
    3    7 N      4, 14
    4    8 O      25, 27, 28

           -------------------------------------------------
          |                Calculation Setup                |
           -------------------------------------------------

          program call               : xtb /rds/general/user/hgt20/home/callum/QDESCP/Yohimbine_rdkit_conf_5/Yohimbine_rdkit_conf_5.xyz --acc 1 --gfn 2 --chrg 0 --uhf 0 --etemp 300 --input /rds/general/user/hgt20/home/callum/QDESCP/Yohimbine_rdkit_conf_5/Yohimbine_rdkit_conf_5_xtb.inp -P 1
          hostname                   : login-c
          coordinate file            : /rds/general/user/hgt20/home/callum/QDESCP/Yohimbine_rdkit_conf_5/Yohimbine_rdkit_conf_5.xyz
          omp threads                :                     1


           -------------------------------------------------
          |                 G F N 2 - x T B                 |
           -------------------------------------------------

        Reference                      10.1021/acs.jctc.8b01176
      * Hamiltonian:
        H0-scaling (s, p, d)           1.850000    2.230000    2.230000
        zeta-weighting                 0.500000
      * Dispersion:
        s8                             2.700000
        a1                             0.520000
        a2                             5.000000
        s9                             5.000000
      * Repulsion:
        kExp                           1.500000    1.000000
        rExp                           1.000000
      * Coulomb:
        alpha                          2.000000
        third order                    shell-resolved
        anisotropic                    true
        a3                             3.000000
        a5                             4.000000
        cn-shift                       1.200000
        cn-exp                         4.000000
        max-rad                        5.000000

q/qsh data taken from xtbrestart
CAMM data taken from xtbrestart

          ...................................................
          :                      SETUP                      :
          :.................................................:
          :  # basis functions                 130          :
          :  # atomic orbitals                 130          :
          :  # shells                           78          :
          :  # electrons                       138          :
          :  max. iterations                   250          :
          :  Hamiltonian                  GFN2-xTB          :
          :  restarted?                       true          :
          :  GBSA solvation                  false          :
          :  PC potential                    false          :
          :  electronic temp.          300.0000000     K    :
          :  accuracy                    1.0000000          :
          :  -> integral cutoff          0.2500000E+02      :
          :  -> integral neglect         0.1000000E-07      :
          :  -> SCF convergence          0.1000000E-05 Eh   :
          :  -> wf. convergence          0.1000000E-03 e    :
          :  Broyden damping             0.4000000          :
          :  net charge                          0          :
          :  unpaired electrons                  0          :
          ...................................................

 iter      E             dE          RMSdq      gap      omega  full diag
   1    -77.3803343 -0.773803E+02  0.547E-06    2.85       0.0  T
   2    -77.3803343 -0.341061E-12  0.410E-06    2.85    3380.7  T
   3    -77.3803343 -0.412115E-12  0.151E-06    2.85    9210.7  T

   *** convergence criteria satisfied after 3 iterations ***

         #    Occupation            Energy/Eh            Energy/eV
      -------------------------------------------------------------
         1        2.0000           -0.7619633             -20.7341
       ...           ...                  ...                  ...
        63        2.0000           -0.4118208             -11.2062
        64        2.0000           -0.4088346             -11.1250
        65        2.0000           -0.4055051             -11.0344
        66        2.0000           -0.4050491             -11.0219
        67        2.0000           -0.3735535             -10.1649
        68        2.0000           -0.3533715              -9.6157
        69        2.0000           -0.3511535              -9.5554 (HOMO)
        70                         -0.2462696              -6.7013 (LUMO)
        71                         -0.2227943              -6.0625
        72                         -0.1909627              -5.1964
        73                         -0.1489146              -4.0522
        74                         -0.0634415              -1.7263
       ...                                ...                  ...
       130                          0.7295465              19.8520
      -------------------------------------------------------------
                  HL-Gap            0.1048838 Eh            2.8540 eV
             Fermi-level           -0.2987115 Eh           -8.1284 eV

 SCC (total)                   0 d,  0 h,  0 min,  0.057 sec
 SCC setup                      ...        0 min,  0.000 sec (  0.786%)
 Dispersion                     ...        0 min,  0.001 sec (  1.094%)
 classical contributions        ...        0 min,  0.000 sec (  0.373%)
 integral evaluation            ...        0 min,  0.010 sec ( 17.536%)
 iterations                     ...        0 min,  0.010 sec ( 17.013%)
 molecular gradient             ...        0 min,  0.036 sec ( 62.710%)
 printout                       ...        0 min,  0.000 sec (  0.477%)

         :::::::::::::::::::::::::::::::::::::::::::::::::::::
         ::                     SUMMARY                     ::
         :::::::::::::::::::::::::::::::::::::::::::::::::::::
         :: total energy             -76.359882619260 Eh    ::
         :: gradient norm              0.000694041012 Eh/a0 ::
         :: HOMO-LUMO gap              2.854034506679 eV    ::
         ::.................................................::
         :: SCC energy               -77.379926318837 Eh    ::
         :: -> isotropic ES            0.078493490280 Eh    ::
         :: -> anisotropic ES          0.010148150437 Eh    ::
         :: -> anisotropic XC          0.026986654303 Eh    ::
         :: -> dispersion             -0.058746897578 Eh    ::
         :: repulsion energy           1.020043699577 Eh    ::
         :: add. restraining           0.000000000000 Eh    ::
         :: total charge               0.000000000000 e     ::
         :::::::::::::::::::::::::::::::::::::::::::::::::::::

           -------------------------------------------------
          |                Property Printout                |
           -------------------------------------------------

    * Orbital Energies and Occupations

         #    Occupation            Energy/Eh            Energy/eV
      -------------------------------------------------------------
         1        2.0000           -0.7619633             -20.7341
       ...           ...                  ...                  ...
        57        2.0000           -0.4430502             -12.0560
        58        2.0000           -0.4414838             -12.0134
        59        2.0000           -0.4335337             -11.7971
        60        2.0000           -0.4329738             -11.7818
        61        2.0000           -0.4265377             -11.6067
        62        2.0000           -0.4175660             -11.3625
        63        2.0000           -0.4118208             -11.2062
        64        2.0000           -0.4088346             -11.1250
        65        2.0000           -0.4055051             -11.0344
        66        2.0000           -0.4050491             -11.0219
        67        2.0000           -0.3735535             -10.1649
        68        2.0000           -0.3533715              -9.6157
        69        2.0000           -0.3511535              -9.5554 (HOMO)
        70                         -0.2462696              -6.7013 (LUMO)
        71                         -0.2227943              -6.0625
        72                         -0.1909627              -5.1964
        73                         -0.1489146              -4.0522
        74                         -0.0634415              -1.7263
        75                         -0.0120156              -0.3270
        76                          0.0039455               0.1074
        77                          0.0177455               0.4829
        78                          0.0291502               0.7932
        79                          0.0427381               1.1630
        80                          0.0518791               1.4117
       ...                                ...                  ...
       130                          0.7295465              19.8520
      -------------------------------------------------------------
                  HL-Gap            0.1048838 Eh            2.8540 eV
             Fermi-level           -0.2987115 Eh           -8.1284 eV

     #   Z          covCN         q      C6AA      α(0)
     1   1 H        0.921     0.005     2.980     2.700
     2   6 C        3.818     0.052    19.699     6.317
     3   6 C        3.089     0.027    27.297     8.564
     4   7 N        2.775    -0.119    23.594     7.214
     5   6 C        3.089     0.044    26.910     8.503
     6   6 C        3.108    -0.020    28.355     8.724
     7   6 C        2.911    -0.037    28.924     8.819
     8   6 C        2.920    -0.042    29.048     8.838
     9   6 C        2.924    -0.038    28.949     8.823
    10   6 C        2.908    -0.054    29.330     8.880
    11   6 C        3.071    -0.036    28.809     8.801
    12   6 C        3.808    -0.059    21.635     6.621
    13   6 C        3.764     0.013    20.397     6.438
    14   7 N        2.739    -0.180    24.896     7.411
    15   6 C        3.767     0.011    20.422     6.441
    16   6 C        3.863    -0.027    21.014     6.519
    17   6 C        3.808    -0.063    21.707     6.632
    18   6 C        3.806    -0.064    21.718     6.634
    19   6 C        3.729     0.125    18.635     6.163
    20   6 C        3.858    -0.063    21.674     6.621
    21   6 C        3.864    -0.015    20.793     6.484
    22   6 C        3.812    -0.060    21.653     6.623
    23   1 H        0.924     0.049     2.329     2.386
    24   6 C        2.721     0.351    21.033     7.508
    25   8 O        1.704    -0.273    18.536     5.813
    26   6 C        3.653     0.034    20.312     6.472
    27   8 O        0.856    -0.402    21.728     6.250
    28   8 O        1.656    -0.444    21.726     6.292
    29   1 H        0.924     0.045     2.378     2.412
    30   1 H        0.860     0.154     1.372     1.835
    31   1 H        0.926     0.026     2.639     2.541
    32   1 H        0.926     0.024     2.669     2.555
    33   1 H        0.926     0.025     2.654     2.548
    34   1 H        0.926     0.020     2.726     2.582
    35   1 H        0.924     0.040     2.452     2.449
    36   1 H        0.924     0.048     2.351     2.398
    37   1 H        0.924     0.032     2.559     2.501
    38   1 H        0.922     0.006     2.954     2.688
    39   1 H        0.924     0.035     2.515     2.480
    40   1 H        0.922     0.005     2.966     2.693
    41   1 H        0.924     0.037     2.494     2.470
    42   1 H        0.924     0.055     2.260     2.351
    43   1 H        0.924     0.037     2.487     2.466
    44   1 H        0.925     0.056     2.242     2.342
    45   1 H        0.922     0.010     2.884     2.656
    46   1 H        0.924     0.060     2.200     2.319
    47   1 H        0.924     0.049     2.338     2.391
[...]
   
   for DIPRO refer to:
   * J. Kohn, N. Gildemeister, S. Grimme, D. Fazzi, A. Hansen,
     J. Chem. Phys., 2023, just accepted.
   
   for PTB refer to:
   * S. Grimme, M. Mueller, A. Hansen, J. Chem. Phys., 2023, 158, 124111.
     DOI: 10.1063/5.0137838
   
   with help from (in alphabetical order)
   P. Atkinson, C. Bannwarth, F. Bohle, G. Brandenburg, E. Caldeweyher
   M. Checinski, S. Dohm, S. Ehlert, S. Ehrlich, I. Gerasimov, C. Hölzer
   A. Katbashev, J. Kohn, J. Koopman, C. Lavigne, S. Lehtola, F. März, M. Müller,
   F. Musil, H. Neugebauer, J. Pisarek, C. Plett, P. Pracht, F. Pultar,
   J. Seibert, P. Shushkov, S. Spicher, M. Stahn, M. Steiner, T. Strunk,
   J. Stückrath, T. Rose, and J. Unsleber
   
 * started run on 2025/05/15 at 16:38:50.277     
   ID    Z sym.   atoms
    1    1 H      1, 23, 29-52
    2    6 C      2, 3, 5-13, 15-22, 24, 26
    3    7 N      4, 14
    4    8 O      25, 27, 28

           -------------------------------------------------
          |                Calculation Setup                |
           -------------------------------------------------

          program call               : xtb /rds/general/user/hgt20/home/callum/QDESCP/Yohimbine_rdkit_conf_5/Yohimbine_rdkit_conf_5.xyz --acc 1 --gfn 2 --chrg 0 --uhf 2 --etemp 300 --input /rds/general/user/hgt20/home/callum/QDESCP/Yohimbine_rdkit_conf_5/Yohimbine_rdkit_conf_5_xtb.inp -P 1
          hostname                   : login-c
          coordinate file            : /rds/general/user/hgt20/home/callum/QDESCP/Yohimbine_rdkit_conf_5/Yohimbine_rdkit_conf_5.xyz
          omp threads                :                     1


           -------------------------------------------------
          |                 G F N 2 - x T B                 |
           -------------------------------------------------

        Reference                      10.1021/acs.jctc.8b01176
      * Hamiltonian:
        H0-scaling (s, p, d)           1.850000    2.230000    2.230000
        zeta-weighting                 0.500000
      * Dispersion:
        s8                             2.700000
        a1                             0.520000
        a2                             5.000000
        s9                             5.000000
      * Repulsion:
        kExp                           1.500000    1.000000
        rExp                           1.000000
      * Coulomb:
        alpha                          2.000000
        third order                    shell-resolved
        anisotropic                    true
        a3                             3.000000
        a5                             4.000000
        cn-shift                       1.200000
        cn-exp                         4.000000
        max-rad                        5.000000


          ...................................................
          :                      SETUP                      :
          :.................................................:
          :  # basis functions                 130          :
          :  # atomic orbitals                 130          :
          :  # shells                           78          :
          :  # electrons                       138          :
          :  max. iterations                   250          :
          :  Hamiltonian                  GFN2-xTB          :
          :  restarted?                      false          :
          :  GBSA solvation                  false          :
          :  PC potential                    false          :
          :  electronic temp.          300.0000000     K    :
          :  accuracy                    1.0000000          :
          :  -> integral cutoff          0.2500000E+02      :
          :  -> integral neglect         0.1000000E-07      :
          :  -> SCF convergence          0.1000000E-05 Eh   :
          :  -> wf. convergence          0.1000000E-03 e    :
          :  Broyden damping             0.4000000          :
          :  net charge                          0          :
          :  unpaired electrons                  2          :
          ...................................................

 iter      E             dE          RMSdq      gap      omega  full diag
   1    -77.0268473 -0.770268E+02  0.371E+00    0.98       0.0  T
   2    -76.8945824  0.132265E+00  0.329E+00    1.14       1.0  T
   3    -76.8528750  0.417074E-01  0.210E+00    0.93       1.0  T
   4    -76.9871200 -0.134245E+00  0.208E+00    1.79       1.0  T
   5    -77.0351835 -0.480636E-01  0.151E+00    0.32       1.0  T
   6    -77.2247709 -0.189587E+00  0.105E+00    0.26       1.0  T
   7    -77.2312446 -0.647369E-02  0.905E-01    0.27       1.0  T
   8    -77.2349628 -0.371816E-02  0.807E-01    0.31       1.0  T
   9    -77.2353636 -0.400848E-03  0.645E-01    0.31       1.0  T
  10    -77.2194600  0.159036E-01  0.581E-01    0.01       1.0  T
  11    -77.2443904 -0.249304E-01  0.278E-01    0.24       1.0  T
  12    -77.2472410 -0.285062E-02  0.145E-01    0.15       1.0  T
  13    -77.2488305 -0.158947E-02  0.313E-02    0.09       1.0  T
  14    -77.2486516  0.178855E-03  0.552E-02    0.09       1.0  T
  15    -77.2487320 -0.803585E-04  0.419E-02    0.11       1.0  T
  16    -77.2488794 -0.147421E-03  0.277E-03    0.10       5.0  T
  17    -77.2488783  0.108636E-05  0.473E-03    0.10       2.9  T
  18    -77.2488798 -0.154429E-05  0.587E-04    0.10      23.6  T
  19    -77.2488798  0.712754E-07  0.110E-03    0.10      12.6  T
  20    -77.2488797  0.707317E-07  0.146E-03    0.10       9.5  T
  21    -77.2488799 -0.149241E-06  0.476E-04    0.10      29.2  T
  22    -77.2488799 -0.165330E-07  0.385E-05    0.10     359.9  T

   *** convergence criteria satisfied after 22 iterations ***

         #    Occupation            Energy/Eh            Energy/eV
      -------------------------------------------------------------
         1        2.0000           -0.7425968             -20.2071
       ...           ...                  ...                  ...
        64        2.0000           -0.4122722             -11.2185
        65        2.0000           -0.4026526             -10.9567
        66        2.0000           -0.4002506             -10.8914
        67        2.0000           -0.3789905             -10.3129
        68        1.9487           -0.3686248             -10.0308
        69        1.0513           -0.3630828              -9.8800
        70        0.8688           -0.2268714              -6.1735 (HOMO)
        71        0.1312           -0.2232788              -6.0757 (LUMO)
        72                         -0.1950443              -5.3074
        73                         -0.1601566              -4.3581
        74                         -0.0669801              -1.8226
        75                         -0.0076916              -0.2093
       ...                                ...                  ...
       130                          0.7231623              19.6782
      -------------------------------------------------------------
                  HL-Gap            0.0035926 Eh            0.0978 eV
             Fermi-level           -0.2954645 Eh           -8.0400 eV

 transition dipole moment (au) for excitation:          69          70
     X       Y       Z   
  -1.6149   0.4971  -0.4243  total (au/Debye):    1.742   4.428
 dE (eV)             :    3.707
 oscillator strength :  0.38975E+00

 SCC (total)                   0 d,  0 h,  0 min,  0.119 sec
 SCC setup                      ...        0 min,  0.000 sec (  0.397%)
 Dispersion                     ...        0 min,  0.001 sec (  0.600%)
 classical contributions        ...        0 min,  0.000 sec (  0.179%)
 integral evaluation            ...        0 min,  0.010 sec (  8.647%)
 iterations                     ...        0 min,  0.063 sec ( 53.424%)
 molecular gradient             ...        0 min,  0.035 sec ( 29.389%)
 printout                       ...        0 min,  0.009 sec (  7.358%)

         :::::::::::::::::::::::::::::::::::::::::::::::::::::
         ::                     SUMMARY                     ::
         :::::::::::::::::::::::::::::::::::::::::::::::::::::
         :: total energy             -76.228428143975 Eh    ::
         :: gradient norm              0.151323806325 Eh/a0 ::
         :: HOMO-LUMO gap              0.097760022494 eV    ::
         ::.................................................::
         :: SCC energy               -77.248471843552 Eh    ::
         :: -> isotropic ES            0.082214292611 Eh    ::
         :: -> anisotropic ES          0.008261064645 Eh    ::
         :: -> anisotropic XC          0.025449037193 Eh    ::
         :: -> dispersion             -0.058564643177 Eh    ::
         :: repulsion energy           1.020043699577 Eh    ::
         :: add. restraining           0.000000000000 Eh    ::
         :: total charge              -0.000000000000 e     ::
         :::::::::::::::::::::::::::::::::::::::::::::::::::::

           -------------------------------------------------
          |                Property Printout                |
           -------------------------------------------------

    * Orbital Energies and Occupations

         #    Occupation            Energy/Eh            Energy/eV
      -------------------------------------------------------------
         1        2.0000           -0.7425968             -20.2071
       ...           ...                  ...                  ...
        58        2.0000           -0.4400490             -11.9743
        59        2.0000           -0.4364679             -11.8769
        60        2.0000           -0.4311061             -11.7310
        61        2.0000           -0.4276356             -11.6366
        62        2.0000           -0.4204738             -11.4417
        63        2.0000           -0.4125875             -11.2271
        64        2.0000           -0.4122722             -11.2185
        65        2.0000           -0.4026526             -10.9567
        66        2.0000           -0.4002506             -10.8914
        67        2.0000           -0.3789905             -10.3129
        68        1.9487           -0.3686248             -10.0308
        69        1.0513           -0.3630828              -9.8800
        70        0.8688           -0.2268714              -6.1735 (HOMO)
        71        0.1312           -0.2232788              -6.0757 (LUMO)
        72                         -0.1950443              -5.3074
        73                         -0.1601566              -4.3581
        74                         -0.0669801              -1.8226
        75                         -0.0076916              -0.2093
        76                          0.0016062               0.0437
        77                          0.0068793               0.1872
        78                          0.0321352               0.8744
        79                          0.0423395               1.1521
        80                          0.0492238               1.3394
        81                          0.0563313               1.5329
       ...                                ...                  ...
       130                          0.7231623              19.6782
      -------------------------------------------------------------
                  HL-Gap            0.0035926 Eh            0.0978 eV
             Fermi-level           -0.2954645 Eh           -8.0400 eV

     #   Z          covCN         q      C6AA      α(0)
     1   1 H        0.921     0.020     2.728     2.583
     2   6 C        3.818     0.049    19.749     6.325
     3   6 C        3.089     0.015    27.575     8.607
     4   7 N        2.775    -0.105    23.288     7.167
     5   6 C        3.089     0.048    26.821     8.489
     6   6 C        3.108    -0.030    28.594     8.761
     7   6 C        2.911    -0.046    29.134     8.851
     8   6 C        2.920    -0.041    29.022     8.834
     9   6 C        2.924    -0.037    28.918     8.819
    10   6 C        2.908    -0.066    29.643     8.928
    11   6 C        3.071    -0.004    28.049     8.684
    12   6 C        3.808    -0.062    21.682     6.628
    13   6 C        3.764     0.010    20.451     6.446
    14   7 N        2.739    -0.158    24.405     7.337
    15   6 C        3.767     0.007    20.490     6.451
    16   6 C        3.863    -0.027    21.013     6.519
    17   6 C        3.808    -0.062    21.689     6.629
    18   6 C        3.806    -0.064    21.717     6.634
    19   6 C        3.729     0.123    18.660     6.167
    20   6 C        3.858    -0.063    21.668     6.620
    21   6 C        3.864    -0.016    20.820     6.489
    22   6 C        3.812    -0.062    21.676     6.627
    23   1 H        0.924     0.049     2.332     2.388
    24   6 C        2.721     0.330    21.389     7.571
    25   8 O        1.704    -0.292    18.846     5.861
    26   6 C        3.653     0.038    20.232     6.459
    27   8 O        0.856    -0.434    22.374     6.342
    28   8 O        1.656    -0.447    21.793     6.302
    29   1 H        0.924     0.045     2.383     2.414
    30   1 H        0.860     0.164     1.311     1.794
    31   1 H        0.926     0.020     2.727     2.582
    32   1 H        0.926     0.024     2.678     2.559
    33   1 H        0.926     0.024     2.668     2.555
    34   1 H        0.926     0.017     2.784     2.609
    35   1 H        0.924     0.054     2.273     2.358
    36   1 H        0.924     0.065     2.143     2.289
    37   1 H        0.924     0.039     2.463     2.454
    38   1 H        0.922     0.015     2.811     2.622
    39   1 H        0.924     0.038     2.481     2.463
    40   1 H        0.922     0.013     2.845     2.638
    41   1 H        0.924     0.034     2.524     2.485
    42   1 H        0.924     0.054     2.265     2.353
    43   1 H        0.924     0.036     2.505     2.475
    44   1 H        0.925     0.055     2.263     2.352
    45   1 H        0.922     0.011     2.875     2.652
    46   1 H        0.924     0.054     2.266     2.354
    47   1 H        0.924     0.051     2.309     2.376
    48   1 H        0.924     0.030     2.593     2.518
    49   1 H        0.924     0.062     2.176     2.307
    50   1 H        0.925     0.061     2.184     2.311
    51   1 H        0.924     0.055     2.259     2.350
    52   1 H        0.805     0.303     0.711     1.325

 Mol. C6AA /au·bohr⁶  :      27209.343338
 Mol. C8AA /au·bohr⁸  :     628850.548572
 Mol. α(0) /au        :        250.714153


Wiberg/Mayer (AO) data.
largest (>0.10) Wiberg bond orders for each atom

 ---------------------------------------------------------------------------
     #   Z sym  total        # sym  WBO       # sym  WBO       # sym  WBO
 ---------------------------------------------------------------------------
     1   1 H    0.976 --     2 C    0.920
     2   6 C    3.983 --     3 C    1.014    14 N    0.994    22 C    0.973
                             1 H    0.920
     3   6 C    3.776 --     4 N    1.231    11 C    1.213     2 C    1.014
                            10 C    0.102
     4   7 N    3.527 --     3 C    1.231     5 C    1.124    30 H    0.942
     5   6 C    3.949 --    10 C    1.394     6 C    1.239     4 N    1.124
     6   6 C    3.957 --    11 C    1.324     5 C    1.239     7 C    1.180
     7   6 C    3.783 --     8 C    1.357     6 C    1.180    31 H    0.970
     8   6 C    3.978 --     9 C    1.495     7 C    1.357    32 H    0.972
     9   6 C    3.876 --     8 C    1.495    10 C    1.195    33 H    0.972
    10   6 C    3.819 --     5 C    1.394     9 C    1.195    34 H    0.969
                             3 C    0.102
    11   6 C    3.872 --     6 C    1.324     3 C    1.213    12 C    1.032
    12   6 C    3.993 --    11 C    1.032    13 C    0.998    35 H    0.961
                            36 H    0.945
    13   6 C    3.982 --    14 N    1.001    12 C    0.998    37 H    0.972
                            38 H    0.964
    14   7 N    3.126 --    15 C    1.004    13 C    1.001     2 C    0.994
    15   6 C    3.981 --    14 N    1.004    16 C    0.989    39 H    0.970
                            40 H    0.960
    16   6 C    3.992 --    17 C    0.997    15 C    0.989    21 C    0.986
                            29 H    0.964
    17   6 C    3.995 --    18 C    1.008    16 C    0.997    41 H    0.976
                            42 H    0.974
    18   6 C    3.994 --    17 C    1.008    19 C    0.989    43 H    0.977
                            44 H    0.973
    19   6 C    3.955 --    28 O    1.004    18 C    0.989    45 H    0.959
                            20 C    0.951
    20   6 C    3.991 --    21 C    0.970    24 C    0.963    46 H    0.963
                            19 C    0.951
    21   6 C    3.987 --    22 C    0.996    16 C    0.986    20 C    0.970
                            23 H    0.962
    22   6 C    3.983 --    21 C    0.996    47 H    0.974     2 C    0.973
                            48 H    0.972
    23   1 H    0.998 --    21 C    0.962
    24   6 C    3.794 --    27 O    1.701    25 O    1.066    20 C    0.963
    25   8 O    2.248 --    24 C    1.066    26 C    0.959    27 O    0.149
    26   6 C    3.931 --    50 H    0.983    51 H    0.978    49 H    0.978
                            25 O    0.959
    27   8 O    1.951 --    24 C    1.701    25 O    0.149
    28   8 O    1.963 --    19 C    1.004    52 H    0.872
    29   1 H    0.998 --    16 C    0.964
    30   1 H    0.973 --     4 N    0.942
    31   1 H    0.999 --     7 C    0.970
    32   1 H    0.999 --     8 C    0.972
    33   1 H    0.999 --     9 C    0.972
    34   1 H    0.999 --    10 C    0.969
    35   1 H    0.992 --    12 C    0.961
    36   1 H    0.985 --    12 C    0.945
    37   1 H    0.998 --    13 C    0.972
    38   1 H    0.994 --    13 C    0.964
    39   1 H    0.997 --    15 C    0.970
    40   1 H    0.993 --    15 C    0.960
    41   1 H    0.998 --    17 C    0.976
    42   1 H    0.997 --    17 C    0.974
    43   1 H    0.999 --    18 C    0.977
    44   1 H    0.995 --    18 C    0.973
    45   1 H    0.999 --    19 C    0.959
    46   1 H    0.997 --    20 C    0.963
    47   1 H    0.997 --    22 C    0.974
    48   1 H    0.999 --    22 C    0.972
    49   1 H    0.995 --    26 C    0.978
    50   1 H    0.996 --    26 C    0.983
    51   1 H    0.996 --    26 C    0.978
    52   1 H    0.908 --    28 O    0.872
 ---------------------------------------------------------------------------

Topologies differ in total number of bonds
Writing topology from bond orders to xtbtopo.mol

molecular dipole:
                 x           y           z       tot (Debye)
 q only:        0.363      -0.845      -0.787
   full:        0.174      -0.512      -1.115       3.150
molecular quadrupole (traceless):
                xx          xy          yy          xz          yz          zz
 q only:      -12.351      -4.121      11.602       2.725     -11.588       0.749
  q+dip:      -15.861      -7.610      15.127       2.065     -12.768       0.735
   full:      -15.635      -7.457      14.085       1.054     -12.704       1.549


           -------------------------------------------------
          | TOTAL ENERGY              -76.228428143975 Eh   |
          | GRADIENT NORM               0.151323806325 Eh/α |
          | HOMO-LUMO GAP               0.097760022494 eV   |
           -------------------------------------------------

------------------------------------------------------------------------
 * finished run on 2025/05/15 at 16:38:50.413     
------------------------------------------------------------------------
 total:
 * wall-time:     0 d,  0 h,  0 min,  0.136 sec
 *  cpu-time:     0 d,  0 h,  0 min,  0.133 sec
 * ratio c/w:     0.982 speedup
 SCF:
 * wall-time:     0 d,  0 h,  0 min,  0.119 sec
 *  cpu-time:     0 d,  0 h,  0 min,  0.119 sec
 * ratio c/w:     0.996 speedup


