52
 energy: -76.359882619258 gnorm: 0.000694018215 xtb: 6.7.1 (edcfbbe)
H            0.48084654662339       -0.21833654162937       -1.60947669365471
C            0.67534247943695       -0.34895999936300       -0.51926594019806
C            1.98660580791816        0.27970113606076       -0.18008314190394
N            2.22385238334971        1.63092514233516       -0.11707963719350
C            3.53373415503926        1.83205672650073        0.21996323117278
C            4.14625108460691        0.56143886372512        0.36616965884248
C            5.49667432847694        0.48743731741873        0.70497897039576
C            6.19522896089733        1.65956498918693        0.88794867087282
C            5.57827863635388        2.90471149549120        0.74169991169498
C            4.24468746661761        3.00917826374195        0.40675394596026
C            3.13246302261963       -0.40437648197812        0.10119982354563
C            3.17289292865203       -1.89364754406059        0.08968298003302
C            1.95360773724233       -2.39218221617821       -0.68829718456767
N            0.74630529848624       -1.76369661571288       -0.18059637916417
C           -0.46661348399462       -2.44813951407439       -0.57591046306709
C           -1.65523950501643       -1.89512352797997        0.21046272433284
C           -2.94896127681243       -2.63232564013858       -0.12544173982452
C           -4.12469650236530       -2.04666618877491        0.65101537090772
C           -4.27954257768298       -0.55693119616042        0.33695863999651
C           -2.96962249752877        0.17583073790145        0.71793770363465
C           -1.79641143717094       -0.40144946490884       -0.08526392892169
C           -0.48184690648105        0.29733239110995        0.25146957470217
H           -2.01175756416010       -0.27140432644035       -1.15169319119611
C           -3.11227739793939        1.66645198112376        0.52154659047815
O           -3.29257330749318        1.99580485164793       -0.77397311370590
C           -3.46037871188075        3.37982470465545       -1.05247806497624
O           -3.09364604579047        2.48602725306703        1.40035964608682
O           -4.60354449903447       -0.43917965770094       -1.02446019496146
H           -1.43458638902438       -2.01809878927362        1.27594775869952
H            1.54461648000954        2.35567467596245       -0.26957180991295
H            5.97825478453528       -0.47201652436001        0.82147874570705
H            7.24254965313714        1.62373408417064        1.15087252394965
H            6.16026728002226        3.80161401452616        0.89487854095500
H            3.76866886455241        3.97274685040283        0.29484556779062
H            4.09101310957961       -2.25796062224801       -0.37559321718915
H            3.13470433413422       -2.27733451799123        1.11289715692802
H            1.85251291450525       -3.47261042746458       -0.56417456654180
H            2.09443843359307       -2.18342489343686       -1.76421678884308
H           -0.34861993522718       -3.51149932709316       -0.35335404750725
H           -0.66285625612167       -2.34757028568271       -1.66047441619354
H           -2.84496460885608       -3.69295067518420        0.10930955618589
H           -3.15624231058215       -2.53696562772593       -1.19222991843581
H           -3.97590744817178       -2.17340619717579        1.72399885118379
H           -5.04568004256599       -2.55421508708914        0.36379511729241
H           -5.09792886662624       -0.13718884425651        0.95034924993597
H           -2.79364011041039        0.01962149931000        1.78658487597837
H           -0.28044717336156        0.20990082455351        1.32057206440916
H           -0.54548621700042        1.35843813020004        0.00011377679464
H           -4.27213693974407        3.79197968123437       -0.45015895511957
H           -3.69091349595492        3.45229661249222       -2.11238823246988
H           -2.54286286955147        3.92468422399569       -0.82233783421143
H           -4.44421231383912        0.47068428326836       -1.30627176870666
