----- Optimization -----
      -----------------------------------------------------------      
     |                   =====================                   |     
     |                           x T B                           |     
     |                   =====================                   |     
     |                         S. Grimme                         |     
     |          Mulliken Center for Theoretical Chemistry        |     
     |                    University of Bonn                     |     
      -----------------------------------------------------------      

   * xtb version 6.7.1 (edcfbbe) compiled by 'conda@3ef47c1a292c' on 2024-11-25

   xtb is free software: you can redistribute it and/or modify it under
   the terms of the GNU Lesser General Public License as published by
   the Free Software Foundation, either version 3 of the License, or
   (at your option) any later version.
   
   xtb is distributed in the hope that it will be useful,
   but WITHOUT ANY WARRANTY; without even the implied warranty of
   MERCHANTABILITY or FITNESS FOR A PARTICULAR PURPOSE.  See the
   GNU Lesser General Public License for more details.
   
   Cite this work as:
   * C. Bannwarth, E. Caldeweyher, S. Ehlert, A. Hansen, P. Pracht,
     J. Seibert, S. Spicher, S. Grimme, WIREs Comput. Mol. Sci., 2020, 11,
     e01493. DOI: 10.1002/wcms.1493
   
   for GFN2-xTB:
   * C. Bannwarth, S. Ehlert and S. Grimme., J. Chem. Theory Comput., 2019,
     15, 1652-1671. DOI: 10.1021/acs.jctc.8b01176
   for GFN1-xTB:
   * S. Grimme, C. Bannwarth, P. Shushkov, J. Chem. Theory Comput., 2017,
     13, 1989-2009. DOI: 10.1021/acs.jctc.7b00118
   for GFN0-xTB:
   * P. Pracht, E. Caldeweyher, S. Ehlert, S. Grimme, ChemRxiv, 2019, preprint.
     DOI: 10.26434/chemrxiv.8326202.v1
   for GFN-FF:
   * S. Spicher and S. Grimme, Angew. Chem. Int. Ed., 2020, 59, 15665-15673.
     DOI: 10.1002/anie.202004239
   
   for ALPB and GBSA implicit solvation:
   * S. Ehlert, M. Stahn, S. Spicher, S. Grimme, J. Chem. Theory Comput.,
     2021, 17, 4250-4261. DOI: 10.1021/acs.jctc.1c00471
   
   for ddCOSMO and CPCM-X implicit solvation:
   * M. Stahn, S. Ehlert, S. Grimme, J. Phys. Chem. A,
     2023, XX, XXXX-XXXX. DOI: 10.1021/acs.jpca.3c04382
   
   for DFT-D4:
   * E. Caldeweyher, C. Bannwarth and S. Grimme, J. Chem. Phys., 2017,
     147, 034112. DOI: 10.1063/1.4993215
   * E. Caldeweyher, S. Ehlert, A. Hansen, H. Neugebauer, S. Spicher,
     C. Bannwarth and S. Grimme, J. Chem. Phys., 2019, 150, 154122.
     DOI: 10.1063/1.5090222
   * E. Caldeweyher, J.-M. Mewes, S. Ehlert and S. Grimme, Phys. Chem. Chem. Phys.
     2020, 22, 8499-8512. DOI: 10.1039/D0CP00502A
   
   for sTDA-xTB:
   * S. Grimme and C. Bannwarth, J. Chem. Phys., 2016, 145, 054103.
     DOI: 10.1063/1.4959605
   
   in the mass-spec context:
   * V. Asgeirsson, C. Bauer and S. Grimme, Chem. Sci., 2017, 8, 4879.
     DOI: 10.1039/c7sc00601b
   * J. Koopman and S. Grimme, ACS Omega 2019, 4, 12, 15120-15133.
     DOI: 10.1021/acsomega.9b02011
   
   for metadynamics refer to:
   * S. Grimme, J. Chem. Theory Comput., 2019, 155, 2847-2862
     DOI: 10.1021/acs.jctc.9b00143
   
   for SPH calculations refer to:
   * S. Spicher and S. Grimme, J. Chem. Theory Comput., 2021, 17, 1701-1714
     DOI: 10.1021/acs.jctc.0c01306
   
   for ONIOM refer to:
   * C. Plett, A. Katbashev, S. Ehlert, S. Grimme, M. Bursch,
     Phys. Chem. Chem. Phys., 2023, 25, 17860-17868. DOI: 10.1039/D3CP02178E
   
   for DIPRO refer to:
   * J. Kohn, N. Gildemeister, S. Grimme, D. Fazzi, A. Hansen,
     J. Chem. Phys., 2023, just accepted.
   
   for PTB refer to:
   * S. Grimme, M. Mueller, A. Hansen, J. Chem. Phys., 2023, 158, 124111.
     DOI: 10.1063/5.0137838
   
   with help from (in alphabetical order)
   P. Atkinson, C. Bannwarth, F. Bohle, G. Brandenburg, E. Caldeweyher
   M. Checinski, S. Dohm, S. Ehlert, S. Ehrlich, I. Gerasimov, C. Hölzer
   A. Katbashev, J. Kohn, J. Koopman, C. Lavigne, S. Lehtola, F. März, M. Müller,
   F. Musil, H. Neugebauer, J. Pisarek, C. Plett, P. Pracht, F. Pultar,
   J. Seibert, P. Shushkov, S. Spicher, M. Stahn, M. Steiner, T. Strunk,
   J. Stückrath, T. Rose, and J. Unsleber
   
 * started run on 2025/05/15 at 16:17:48.096     
   ID    Z sym.   atoms
    1    6 C      1-8, 10-13, 15-19
    2    7 N      9
    3    8 O      14, 20, 21
    4    1 H      22-42

           -------------------------------------------------
          |                Calculation Setup                |
           -------------------------------------------------

          program call               : xtb /rds/general/user/hgt20/home/callum/QDESCP/Etodolac_rdkit_conf_3/Etodolac_rdkit_conf_3.xyz --opt normal --acc 1 --gfn 2 --chrg 0 --uhf 0 -P 1
          hostname                   : login-c
          coordinate file            : /rds/general/user/hgt20/home/callum/QDESCP/Etodolac_rdkit_conf_3/Etodolac_rdkit_conf_3.xyz
          omp threads                :                     1


           -------------------------------------------------
          |                 G F N 2 - x T B                 |
           -------------------------------------------------

        Reference                      10.1021/acs.jctc.8b01176
      * Hamiltonian:
        H0-scaling (s, p, d)           1.850000    2.230000    2.230000
        zeta-weighting                 0.500000
      * Dispersion:
        s8                             2.700000
        a1                             0.520000
        a2                             5.000000
        s9                             5.000000
      * Repulsion:
        kExp                           1.500000    1.000000
        rExp                           1.000000
      * Coulomb:
        alpha                          2.000000
        third order                    shell-resolved
        anisotropic                    true
        a3                             3.000000
        a5                             4.000000
        cn-shift                       1.200000
        cn-exp                         4.000000
        max-rad                        5.000000


          ...................................................
          :                      SETUP                      :
          :.................................................:
          :  # basis functions                 105          :
          :  # atomic orbitals                 105          :
          :  # shells                           63          :
          :  # electrons                       112          :
          :  max. iterations                   250          :
          :  Hamiltonian                  GFN2-xTB          :
          :  restarted?                      false          :
          :  GBSA solvation                  false          :
          :  PC potential                    false          :
          :  electronic temp.          300.0000000     K    :
          :  accuracy                    1.0000000          :
          :  -> integral cutoff          0.2500000E+02      :
          :  -> integral neglect         0.1000000E-07      :
          :  -> SCF convergence          0.1000000E-05 Eh   :
          :  -> wf. convergence          0.1000000E-03 e    :
          :  Broyden damping             0.4000000          :
          :  net charge                          0          :
          :  unpaired electrons                  0          :
          ...................................................

 iter      E             dE          RMSdq      gap      omega  full diag
   1    -62.9652517 -0.629653E+02  0.381E+00    3.08       0.0  T
   2    -63.0855577 -0.120306E+00  0.222E+00    2.49       1.0  T
   3    -63.0908085 -0.525070E-02  0.121E+00    2.98       1.0  T
   4    -63.0966153 -0.580682E-02  0.520E-01    2.28       1.0  T
   5    -63.1056858 -0.907056E-02  0.123E-01    2.27       1.0  T
   6    -63.1059696 -0.283776E-03  0.593E-02    2.29       1.0  T
   7    -63.1060097 -0.400693E-04  0.262E-02    2.29       1.0  T
   8    -63.1060123 -0.258866E-05  0.118E-02    2.30       1.3  T
   9    -63.1060157 -0.347233E-05  0.304E-03    2.30       5.1  T
  10    -63.1060158 -0.442598E-07  0.149E-03    2.30      10.3  T
  11    -63.1060158 -0.266215E-07  0.633E-04    2.30      24.4  T
  12    -63.1060158 -0.508798E-08  0.274E-04    2.30      56.3  T

   *** convergence criteria satisfied after 12 iterations ***

         #    Occupation            Energy/Eh            Energy/eV
      -------------------------------------------------------------
         1        2.0000           -0.7619087             -20.7326
       ...           ...                  ...                  ...
        50        2.0000           -0.4253583             -11.5746
        51        2.0000           -0.4138972             -11.2627
        52        2.0000           -0.4039856             -10.9930
        53        2.0000           -0.3947205             -10.7409
        54        2.0000           -0.3926051             -10.6833
        55        2.0000           -0.3695966             -10.0572
        56        2.0000           -0.3451268              -9.3914 (HOMO)
        57                         -0.2605155              -7.0890 (LUMO)
        58                         -0.2233982              -6.0790
        59                         -0.1854564              -5.0465
        60                         -0.1510177              -4.1094
        61                         -0.0646955              -1.7605
       ...                                ...                  ...
       105                          0.7159795              19.4828
      -------------------------------------------------------------
                  HL-Gap            0.0846113 Eh            2.3024 eV
             Fermi-level           -0.3028211 Eh           -8.2402 eV

 SCC (total)                   0 d,  0 h,  0 min,  0.105 sec
 SCC setup                      ...        0 min,  0.000 sec (  0.333%)
 Dispersion                     ...        0 min,  0.000 sec (  0.447%)
 classical contributions        ...        0 min,  0.000 sec (  0.137%)
 integral evaluation            ...        0 min,  0.008 sec (  7.171%)
 iterations                     ...        0 min,  0.072 sec ( 68.211%)
 molecular gradient             ...        0 min,  0.025 sec ( 23.537%)
 printout                       ...        0 min,  0.000 sec (  0.156%)

         :::::::::::::::::::::::::::::::::::::::::::::::::::::
         ::                     SUMMARY                     ::
         :::::::::::::::::::::::::::::::::::::::::::::::::::::
         :: total energy             -62.286888293822 Eh    ::
         :: gradient norm              0.073951332268 Eh/a0 ::
         :: HOMO-LUMO gap              2.302391638937 eV    ::
         ::.................................................::
         :: SCC energy               -63.105453232096 Eh    ::
         :: -> isotropic ES            0.074956421678 Eh    ::
         :: -> anisotropic ES          0.008432997006 Eh    ::
         :: -> anisotropic XC          0.018750436492 Eh    ::
         :: -> dispersion             -0.044931361134 Eh    ::
         :: repulsion energy           0.818564938274 Eh    ::
         :: add. restraining           0.000000000000 Eh    ::
         :: total charge              -0.000000000000 e     ::
         :::::::::::::::::::::::::::::::::::::::::::::::::::::

      ----------------------------------------------------------- 
     |                   =====================                   |
     |                        A N C O P T                        |
     |                   =====================                   |
     |               Approximate Normal Coordinate               |
     |                Rational Function Optimizer                |
      ----------------------------------------------------------- 
      ----------------------------------------------------------- 
     |                   =====================                   |
     |                        A N C O P T                        |
     |                   =====================                   |
     |               Approximate Normal Coordinate               |
     |                Rational Function Optimizer                |
      ----------------------------------------------------------- 

          ...................................................
          :                      SETUP                      :
          :.................................................:
          :   optimization level            normal          :
          :   max. optcycles                   200          :
          :   ANC micro-cycles                  20          :
          :   degrees of freedom               120          :
          :.................................................:
          :   RF solver                   davidson          :
          :   write xtbopt.log                true          :
          :   linear?                        false          :
          :   energy convergence         0.5000000E-05 Eh   :
          :   grad. convergence          0.1000000E-02 Eh/α :
          :   maxmium RF displ.          1.0000000          :
          :   Hlow (freq-cutoff)         0.1000000E-01      :
          :   Hmax (freq-cutoff)         5.0000000          :
          :   S6 in model hess.         20.0000000          :
          ...................................................

generating ANC from exact Hessian ...
Using Lindh-Hessian (1995)
 Shifting diagonal of input Hessian by    9.4675651164799323E-003
 Lowest  eigenvalues of input Hessian
    0.000000    0.000000    0.000000    0.000000    0.000000    0.000000
    0.010000    0.010365    0.010956    0.011303    0.011829    0.013016
    0.013382    0.014462    0.014626    0.015819    0.016150    0.018464
 Highest eigenvalues
    1.832497    1.924783    1.985154    2.024650    2.127652    2.267146


........................................................................
.............................. CYCLE    1 ..............................
........................................................................

 iter      E             dE          RMSdq      gap      omega  full diag
   1    -63.1060158 -0.631060E+02  0.128E-04    2.30       0.0  T
   2    -63.1060158 -0.136822E-09  0.829E-05    2.30     186.1  T
   3    -63.1060158 -0.853362E-10  0.533E-05    2.30     289.5  T
     SCC iter.                  ...        0 min,  0.006 sec
     gradient                   ...        0 min,  0.053 sec
 * total energy  :   -62.2868883 Eh     change       -0.9827019E-09 Eh
   gradient norm :     0.0739530 Eh/α   predicted     0.0000000E+00 (-100.00%)
   displ. norm   :     0.2899237 α      lambda       -0.9883679E-02
   maximum displ.:     0.1059732 α      in ANC's #14, #29, #25, ...

........................................................................
.............................. CYCLE    2 ..............................
........................................................................

 iter      E             dE          RMSdq      gap      omega  full diag
   1    -63.1375166 -0.631375E+02  0.207E-01    2.54       0.0  T
   2    -63.1375967 -0.801264E-04  0.123E-01    2.53       1.0  T
   3    -63.1375770  0.197163E-04  0.357E-02    2.55       1.0  T
   4    -63.1376041 -0.270364E-04  0.998E-03    2.53       1.5  T
   5    -63.1376072 -0.315203E-05  0.456E-03    2.54       3.4  T
   6    -63.1376077 -0.525910E-06  0.198E-03    2.54       7.8  T
   7    -63.1376078 -0.357599E-07  0.859E-04    2.53      18.0  T
   8    -63.1376078 -0.327482E-08  0.279E-04    2.53      55.4  T
     SCC iter.                  ...        0 min,  0.015 sec
     gradient                   ...        0 min,  0.069 sec
 * total energy  :   -62.2933756 Eh     change       -0.6487327E-02 Eh
   gradient norm :     0.0275110 Eh/α   predicted    -0.5359224E-02 ( -17.39%)
   displ. norm   :     0.2526649 α      lambda       -0.2514945E-02
   maximum displ.:     0.1297776 α      in ANC's #14, #11, #22, ...

........................................................................
.............................. CYCLE    3 ..............................
........................................................................

 iter      E             dE          RMSdq      gap      omega  full diag
   1    -63.1519510 -0.631520E+02  0.105E-01    2.63       0.0  T
   2    -63.1519784 -0.273241E-04  0.638E-02    2.61       1.0  T
   3    -63.1519651  0.132997E-04  0.248E-02    2.62       1.0  T
   4    -63.1519816 -0.164957E-04  0.809E-03    2.61       1.9  T
   5    -63.1519838 -0.226644E-05  0.250E-03    2.61       6.2  T
   6    -63.1519840 -0.127425E-06  0.104E-03    2.61      14.9  T
   7    -63.1519840 -0.666900E-08  0.516E-04    2.61      29.9  T
   8    -63.1519840 -0.116891E-08  0.183E-04    2.61      84.4  T
     SCC iter.                  ...        0 min,  0.015 sec
     gradient                   ...        0 min,  0.025 sec
 * total energy  :   -62.2949053 Eh     change       -0.1529658E-02 Eh
   gradient norm :     0.0090082 Eh/α   predicted    -0.1339085E-02 ( -12.46%)
   displ. norm   :     0.1799714 α      lambda       -0.5470487E-03
   maximum displ.:     0.0805247 α      in ANC's #14, #11, #8, ...

........................................................................
.............................. CYCLE    4 ..............................
........................................................................

 iter      E             dE          RMSdq      gap      omega  full diag
   1    -63.1535747 -0.631536E+02  0.485E-02    2.62       0.0  T
   2    -63.1535780 -0.334375E-05  0.294E-02    2.62       1.0  T
   3    -63.1535744  0.359472E-05  0.105E-02    2.62       1.5  T
   4    -63.1535787 -0.432303E-05  0.298E-03    2.62       5.2  T
   5    -63.1535790 -0.244375E-06  0.115E-03    2.62      13.4  T
   6    -63.1535790 -0.133785E-07  0.565E-04    2.62      27.3  T
   7    -63.1535790 -0.151196E-08  0.276E-04    2.62      56.0  T
     SCC iter.                  ...        0 min,  0.044 sec
     gradient                   ...        0 min,  0.025 sec
 * total energy  :   -62.2952801 Eh     change       -0.3748700E-03 Eh
   gradient norm :     0.0064942 Eh/α   predicted    -0.2823923E-03 ( -24.67%)
   displ. norm   :     0.1898761 α      lambda       -0.3174740E-03
   maximum displ.:     0.0786994 α      in ANC's #8, #11, #3, ...

........................................................................
.............................. CYCLE    5 ..............................
........................................................................

 iter      E             dE          RMSdq      gap      omega  full diag
   1    -63.1530536 -0.631531E+02  0.386E-02    2.63       0.0  T
   2    -63.1530546 -0.969958E-06  0.232E-02    2.62       1.0  T
   3    -63.1530534  0.122217E-05  0.631E-03    2.63       2.4  T
   4    -63.1530550 -0.159615E-05  0.178E-03    2.62       8.7  T
   5    -63.1530550 -0.514991E-07  0.967E-04    2.62      16.0  T
   6    -63.1530550 -0.661882E-08  0.384E-04    2.62      40.2  T
     SCC iter.                  ...        0 min,  0.011 sec
     gradient                   ...        0 min,  0.063 sec
 * total energy  :   -62.2954822 Eh     change       -0.2020296E-03 Eh
   gradient norm :     0.0051980 Eh/α   predicted    -0.1644631E-03 ( -18.59%)
   displ. norm   :     0.1380700 α      lambda       -0.1307946E-03
   maximum displ.:     0.0645467 α      in ANC's #3, #8, #4, ...

........................................................................
.............................. CYCLE    6 ..............................
........................................................................

 iter      E             dE          RMSdq      gap      omega  full diag
   1    -63.1525196 -0.631525E+02  0.260E-02    2.63       0.0  T
   2    -63.1525201 -0.526087E-06  0.155E-02    2.63       1.0  T
   3    -63.1525199  0.192985E-06  0.325E-03    2.63       4.7  T
   4    -63.1525202 -0.315262E-06  0.105E-03    2.63      14.6  T
   5    -63.1525203 -0.177228E-07  0.544E-04    2.63      28.4  T
   6    -63.1525203 -0.179328E-08  0.250E-04    2.63      61.7  T
     SCC iter.                  ...        0 min,  0.011 sec
     gradient                   ...        0 min,  0.076 sec
 * total energy  :   -62.2955712 Eh     change       -0.8897730E-04 Eh
   gradient norm :     0.0033236 Eh/α   predicted    -0.6673613E-04 ( -25.00%)
   displ. norm   :     0.1260276 α      lambda       -0.7951676E-04
   maximum displ.:     0.0653486 α      in ANC's #3, #4, #8, ...

........................................................................
.............................. CYCLE    7 ..............................
........................................................................

 iter      E             dE          RMSdq      gap      omega  full diag
   1    -63.1527030 -0.631527E+02  0.220E-02    2.65       0.0  T
   2    -63.1527036 -0.580729E-06  0.133E-02    2.65       1.2  T
   3    -63.1527031  0.473851E-06  0.405E-03    2.65       3.8  T
   4    -63.1527037 -0.584478E-06  0.111E-03    2.65      13.9  T
   5    -63.1527037 -0.295703E-07  0.460E-04    2.65      33.6  T
   6    -63.1527037 -0.150336E-08  0.253E-04    2.65      61.0  T
     SCC iter.                  ...        0 min,  0.011 sec
     gradient                   ...        0 min,  0.069 sec
 * total energy  :   -62.2956273 Eh     change       -0.5613507E-04 Eh
   gradient norm :     0.0023322 Eh/α   predicted    -0.4039065E-04 ( -28.05%)
   displ. norm   :     0.1251784 α      lambda       -0.5694511E-04
   maximum displ.:     0.0729666 α      in ANC's #4, #3, #13, ...

........................................................................
.............................. CYCLE    8 ..............................
........................................................................

 iter      E             dE          RMSdq      gap      omega  full diag
   1    -63.1530490 -0.631530E+02  0.232E-02    2.65       0.0  T
   2    -63.1530492 -0.267024E-06  0.138E-02    2.65       1.1  T
   3    -63.1530490  0.245460E-06  0.285E-03    2.65       5.4  T
   4    -63.1530493 -0.310753E-06  0.816E-04    2.65      18.9  T
   5    -63.1530493 -0.119597E-07  0.390E-04    2.65      39.6  T
     SCC iter.                  ...        0 min,  0.009 sec
     gradient                   ...        0 min,  0.025 sec
 * total energy  :   -62.2956713 Eh     change       -0.4397069E-04 Eh
   gradient norm :     0.0027897 Eh/α   predicted    -0.2892049E-04 ( -34.23%)
   displ. norm   :     0.1492817 α      lambda       -0.6126351E-04
   maximum displ.:     0.0916544 α      in ANC's #4, #3, #13, ...

........................................................................
.............................. CYCLE    9 ..............................
........................................................................

 iter      E             dE          RMSdq      gap      omega  full diag
   1    -63.1534323 -0.631534E+02  0.315E-02    2.65       0.0  T
   2    -63.1534325 -0.177803E-06  0.185E-02    2.66       1.0  T
   3    -63.1534325 -0.181555E-07  0.161E-03    2.66       9.6  T
   4    -63.1534326 -0.559808E-07  0.804E-04    2.66      19.2  T
   5    -63.1534326 -0.316187E-08  0.407E-04    2.66      37.9  T
     SCC iter.                  ...        0 min,  0.054 sec
     gradient                   ...        0 min,  0.025 sec
 * total energy  :   -62.2957210 Eh     change       -0.4972660E-04 Eh
   gradient norm :     0.0030763 Eh/α   predicted    -0.3131921E-04 ( -37.02%)
   displ. norm   :     0.2008621 α      lambda       -0.7437122E-04
   maximum displ.:     0.1255668 α      in ANC's #4, #3, #13, ...

........................................................................
.............................. CYCLE   10 ..............................
........................................................................

 iter      E             dE          RMSdq      gap      omega  full diag
   1    -63.1535178 -0.631535E+02  0.448E-02    2.65       0.0  T
   2    -63.1535182 -0.382850E-06  0.263E-02    2.65       1.0  T
   3    -63.1535181  0.162445E-06  0.309E-03    2.65       5.0  T
   4    -63.1535184 -0.339195E-06  0.126E-03    2.65      12.2  T
   5    -63.1535184 -0.135498E-07  0.685E-04    2.65      22.5  T
   6    -63.1535184 -0.296325E-08  0.212E-04    2.65      72.9  T
     SCC iter.                  ...        0 min,  0.011 sec
     gradient                   ...        0 min,  0.064 sec
 * total energy  :   -62.2957796 Eh     change       -0.5859130E-04 Eh
   gradient norm :     0.0029035 Eh/α   predicted    -0.3869055E-04 ( -33.97%)
   displ. norm   :     0.2053342 α      lambda       -0.6492516E-04
   maximum displ.:     0.1302970 α      in ANC's #4, #3, #9, ...

........................................................................
.............................. CYCLE   11 ..............................
........................................................................

 iter      E             dE          RMSdq      gap      omega  full diag
   1    -63.1533910 -0.631534E+02  0.467E-02    2.64       0.0  T
   2    -63.1533915 -0.534160E-06  0.274E-02    2.64       1.0  T
   3    -63.1533911  0.472721E-06  0.416E-03    2.64       3.7  T
   4    -63.1533918 -0.698782E-06  0.140E-03    2.64      11.0  T
   5    -63.1533918 -0.217226E-07  0.769E-04    2.64      20.1  T
   6    -63.1533918 -0.260206E-08  0.295E-04    2.64      52.3  T
     SCC iter.                  ...        0 min,  0.011 sec
     gradient                   ...        0 min,  0.070 sec
 * total energy  :   -62.2958287 Eh     change       -0.4913376E-04 Eh
   gradient norm :     0.0028340 Eh/α   predicted    -0.3383217E-04 ( -31.14%)
   displ. norm   :     0.1624770 α      lambda       -0.4658610E-04
   maximum displ.:     0.1045414 α      in ANC's #4, #3, #5, ...

........................................................................
.............................. CYCLE   12 ..............................
........................................................................

 iter      E             dE          RMSdq      gap      omega  full diag
   1    -63.1534230 -0.631534E+02  0.356E-02    2.64       0.0  T
   2    -63.1534234 -0.408234E-06  0.209E-02    2.64       1.0  T
   3    -63.1534232  0.181875E-06  0.291E-03    2.64       5.3  T
   4    -63.1534235 -0.300923E-06  0.113E-03    2.64      13.7  T
   5    -63.1534235 -0.209776E-07  0.614E-04    2.64      25.1  T
   6    -63.1534235 -0.240646E-08  0.245E-04    2.64      63.0  T
     SCC iter.                  ...        0 min,  0.011 sec
     gradient                   ...        0 min,  0.025 sec
 * total energy  :   -62.2958641 Eh     change       -0.3540427E-04 Eh
   gradient norm :     0.0025322 Eh/α   predicted    -0.2391213E-04 ( -32.46%)
   displ. norm   :     0.1407949 α      lambda       -0.3548986E-04
   maximum displ.:     0.0904054 α      in ANC's #4, #3, #5, ...

........................................................................
.............................. CYCLE   13 ..............................
........................................................................

 iter      E             dE          RMSdq      gap      omega  full diag
   1    -63.1534170 -0.631534E+02  0.288E-02    2.64       0.0  T
   2    -63.1534173 -0.331116E-06  0.169E-02    2.64       1.0  T
   3    -63.1534173  0.405728E-07  0.221E-03    2.64       7.0  T
   4    -63.1534174 -0.130403E-06  0.696E-04    2.64      22.2  T
   5    -63.1534174 -0.619195E-09  0.387E-04    2.64      39.9  T
     SCC iter.                  ...        0 min,  0.048 sec
     gradient                   ...        0 min,  0.025 sec
 * total energy  :   -62.2958904 Eh     change       -0.2624955E-04 Eh
   gradient norm :     0.0020551 Eh/α   predicted    -0.1809896E-04 ( -31.05%)
   displ. norm   :     0.1248340 α      lambda       -0.2359827E-04
   maximum displ.:     0.0783756 α      in ANC's #4, #3, #5, ...

........................................................................
.............................. CYCLE   14 ..............................
........................................................................

 iter      E             dE          RMSdq      gap      omega  full diag
   1    -63.1532856 -0.631533E+02  0.245E-02    2.64       0.0  T
   2    -63.1532858 -0.204239E-06  0.144E-02    2.64       1.1  T
   3    -63.1532856  0.156487E-06  0.256E-03    2.64       6.0  T
   4    -63.1532858 -0.224129E-06  0.771E-04    2.64      20.0  T
   5    -63.1532858 -0.876951E-08  0.437E-04    2.64      35.3  T
     SCC iter.                  ...        0 min,  0.009 sec
     gradient                   ...        0 min,  0.064 sec
 * total energy  :   -62.2959077 Eh     change       -0.1735175E-04 Eh
   gradient norm :     0.0016386 Eh/α   predicted    -0.1198411E-04 ( -30.93%)
   displ. norm   :     0.1685117 α      lambda       -0.1714094E-04
   maximum displ.:     0.1000917 α      in ANC's #4, #5, #3, ...

........................................................................
.............................. CYCLE   15 ..............................
........................................................................

 iter      E             dE          RMSdq      gap      omega  full diag
   1    -63.1531613 -0.631532E+02  0.317E-02    2.64       0.0  T
   2    -63.1531616 -0.366305E-06  0.187E-02    2.64       1.0  T
   3    -63.1531609  0.722723E-06  0.480E-03    2.63       3.2  T
   4    -63.1531618 -0.893499E-06  0.101E-03    2.63      15.2  T
   5    -63.1531618 -0.115220E-07  0.567E-04    2.63      27.2  T
   6    -63.1531618 -0.140976E-08  0.243E-04    2.63      63.6  T
     SCC iter.                  ...        0 min,  0.011 sec
     gradient                   ...        0 min,  0.076 sec
 * total energy  :   -62.2959225 Eh     change       -0.1474017E-04 Eh
   gradient norm :     0.0012361 Eh/α   predicted    -0.8680656E-05 ( -41.11%)
   displ. norm   :     0.1680688 α      lambda        0.1049713E-04
   maximum displ.:     0.0998618 α      in ANC's #4, #5, #3, ...

........................................................................
.............................. CYCLE   16 ..............................
........................................................................

 iter      E             dE          RMSdq      gap      omega  full diag
   1    -63.1526707 -0.631527E+02  0.317E-02    2.63       0.0  T
   2    -63.1526710 -0.322945E-06  0.186E-02    2.63       1.0  T
   3    -63.1526703  0.733736E-06  0.478E-03    2.63       3.2  T
   4    -63.1526712 -0.901380E-06  0.971E-04    2.63      15.9  T
   5    -63.1526712 -0.820418E-08  0.545E-04    2.63      28.3  T
     SCC iter.                  ...        0 min,  0.009 sec
     gradient                   ...        0 min,  0.025 sec
 * total energy  :   -62.2959143 Eh     change        0.8188112E-05 Eh
   gradient norm :     0.0022961 Eh/α   predicted     0.5314386E-05 ( -35.10%)
   displ. norm   :     0.0911844 α      lambda       -0.1956849E-04
   maximum displ.:     0.0598367 α      in ANC's #4, #3, #5, ...

........................................................................
.............................. CYCLE   17 ..............................
........................................................................

 iter      E             dE          RMSdq      gap      omega  full diag
   1    -63.1533680 -0.631534E+02  0.182E-02    2.63       0.0  T
   2    -63.1533681 -0.966281E-07  0.107E-02    2.63       1.4  T
   3    -63.1533679  0.144065E-06  0.220E-03    2.64       7.0  T
   4    -63.1533681 -0.185199E-06  0.564E-04    2.64      27.3  T
   5    -63.1533681 -0.440952E-08  0.309E-04    2.64      49.9  T
     SCC iter.                  ...        0 min,  0.048 sec
     gradient                   ...        0 min,  0.025 sec
 * total energy  :   -62.2959284 Eh     change       -0.1413279E-04 Eh
   gradient norm :     0.0014717 Eh/α   predicted    -0.9866620E-05 ( -30.19%)
   displ. norm   :     0.0924165 α      lambda       -0.1491449E-04
   maximum displ.:     0.0645051 α      in ANC's #4, #3, #8, ...

........................................................................
.............................. CYCLE   18 ..............................
........................................................................

 iter      E             dE          RMSdq      gap      omega  full diag
   1    -63.1533784 -0.631534E+02  0.175E-02    2.63       0.0  T
   2    -63.1533787 -0.354136E-06  0.104E-02    2.63       1.5  T
   3    -63.1533783  0.417452E-06  0.403E-03    2.63       3.8  T
   4    -63.1533788 -0.526149E-06  0.859E-04    2.63      18.0  T
   5    -63.1533788 -0.197631E-07  0.357E-04    2.63      43.2  T
     SCC iter.                  ...        0 min,  0.010 sec
     gradient                   ...        0 min,  0.068 sec
 * total energy  :   -62.2959376 Eh     change       -0.9187074E-05 Eh
   gradient norm :     0.0010653 Eh/α   predicted    -0.7489271E-05 ( -18.48%)
   displ. norm   :     0.0181689 α      lambda        0.2120091E-05
   maximum displ.:     0.0078517 α      in ANC's #16, #9, #3, ...

........................................................................
.............................. CYCLE   19 ..............................
........................................................................

 iter      E             dE          RMSdq      gap      omega  full diag
   1    -63.1532557 -0.631533E+02  0.623E-03    2.64       0.0  T
   2    -63.1532557 -0.279848E-07  0.366E-03    2.64       4.2  T
   3    -63.1532557  0.250622E-07  0.924E-04    2.64      16.7  T
   4    -63.1532558 -0.320889E-07  0.203E-04    2.64      76.0  T
     SCC iter.                  ...        0 min,  0.007 sec
     gradient                   ...        0 min,  0.076 sec
 * total energy  :   -62.2959365 Eh     change        0.1135811E-05 Eh
   gradient norm :     0.0010682 Eh/α   predicted     0.1056881E-05 (  -6.95%)
   displ. norm   :     0.0596895 α      lambda       -0.8586988E-05
   maximum displ.:     0.0285646 α      in ANC's #2, #5, #11, ...

........................................................................
.............................. CYCLE   20 ..............................
........................................................................

 iter      E             dE          RMSdq      gap      omega  full diag
   1    -63.1540037 -0.631540E+02  0.112E-02    2.65       0.0  T
   2    -63.1540040 -0.248231E-06  0.665E-03    2.64       2.3  T
   3    -63.1540039  0.715865E-07  0.243E-03    2.64       6.3  T
   4    -63.1540040 -0.106942E-06  0.537E-04    2.64      28.7  T
   5    -63.1540040 -0.856068E-08  0.225E-04    2.64      68.5  T
     SCC iter.                  ...        0 min,  0.009 sec
     gradient                   ...        0 min,  0.024 sec
 * total energy  :   -62.2959437 Eh     change       -0.7278743E-05 Eh
   gradient norm :     0.0012427 Eh/α   predicted    -0.4305078E-05 ( -40.85%)
   displ. norm   :     0.0755417 α      lambda       -0.5585287E-05
   maximum displ.:     0.0425122 α      in ANC's #5, #2, #4, ...
 * RMSD in coord.:     0.2865567 α      energy gain  -0.9055441E-02 Eh

generating ANC from exact Hessian ...
Using Lindh-Hessian (1995)
 Shifting diagonal of input Hessian by    9.4543502375351064E-003
 Lowest  eigenvalues of input Hessian
    0.000000    0.000000    0.000000    0.000000    0.000000    0.000000
    0.010000    0.010406    0.011069    0.011531    0.012018    0.012957
    0.013361    0.014281    0.014969    0.015713    0.016277    0.018677
 Highest eigenvalues
    1.872699    1.982081    2.020848    2.079164    2.181740    2.360075


........................................................................
.............................. CYCLE   21 ..............................
........................................................................

 iter      E             dE          RMSdq      gap      omega  full diag
   1    -63.1535995 -0.631536E+02  0.156E-02    2.63       0.0  T
   2    -63.1535995 -0.579914E-07  0.922E-03    2.63       1.7  T
   3    -63.1535995  0.164200E-07  0.113E-03    2.63      13.7  T
   4    -63.1535996 -0.383536E-07  0.415E-04    2.63      37.2  T
   5    -63.1535996 -0.623743E-09  0.249E-04    2.63      62.0  T
     SCC iter.                  ...        0 min,  0.009 sec
     gradient                   ...        0 min,  0.025 sec
 * total energy  :   -62.2959499 Eh     change       -0.6116550E-05 Eh
   gradient norm :     0.0005135 Eh/α   predicted     0.0000000E+00 (-100.00%)
   displ. norm   :     0.0117757 α      lambda       -0.1126637E-05
   maximum displ.:     0.0065095 α      in ANC's #5, #2, #6, ...

........................................................................
.............................. CYCLE   22 ..............................
........................................................................

 iter      E             dE          RMSdq      gap      omega  full diag
   1    -63.1534396 -0.631534E+02  0.256E-03    2.63       0.0  T
   2    -63.1534396 -0.889128E-08  0.151E-03    2.63      10.2  T
   3    -63.1534396  0.764192E-08  0.556E-04    2.63      27.7  T
   4    -63.1534396 -0.935650E-08  0.125E-04    2.63     123.7  T
     SCC iter.                  ...        0 min,  0.007 sec
     gradient                   ...        0 min,  0.024 sec
 * total energy  :   -62.2959512 Eh     change       -0.1353074E-05 Eh
   gradient norm :     0.0002431 Eh/α   predicted    -0.5983478E-06 ( -55.78%)
   displ. norm   :     0.0335864 α      lambda       -0.2173454E-05
   maximum displ.:     0.0198399 α      in ANC's #5, #2, #6, ...

   *** GEOMETRY OPTIMIZATION CONVERGED AFTER 22 ITERATIONS ***

------------------------------------------------------------------------
 total energy gain   :        -0.0090629 Eh       -5.6871 kcal/mol
 total RMSD          :         0.2866678 a0        0.1517 Å
 total power (kW/mol):        -1.0815758 (step)  -13.9441 (real)
------------------------------------------------------------------------

 ANCopt (total)                0 d,  0 h,  0 min,  1.706 sec
 optimizer setup                ...        0 min,  0.000 sec (  0.005%)
 model hessian                  ...        0 min,  0.086 sec (  5.036%)
 ANC generation                 ...        0 min,  0.003 sec (  0.174%)
 coordinate transformation      ...        0 min,  0.000 sec (  0.009%)
 single point calculation       ...        0 min,  1.612 sec ( 94.436%)
 optimization log               ...        0 min,  0.003 sec (  0.202%)
 hessian update                 ...        0 min,  0.000 sec (  0.016%)
 rational function              ...        0 min,  0.001 sec (  0.080%)

================
 final structure:
================
42
 xtb: 6.7.1 (edcfbbe)
C            3.43721560864213       -2.26401594334372        0.11402926906998
C            3.14587383942260       -1.52920921585800       -1.19606979006850
C            2.86934761163136       -0.07301176945100       -0.94943098415752
C            3.82162945187469        0.90550486246237       -1.15783105104800
C            3.56882107359211        2.25591481923014       -0.89997160425877
C            2.35143726268748        2.67855541956034       -0.41971119509414
C            1.36294053081386        1.72072862960577       -0.19259268384620
C            1.63503392483008        0.35476678897025       -0.45908076910464
N            0.51269435155397       -0.36592590454726       -0.16543801489027
C           -0.45002278586310        0.49117235725216        0.29186535615547
C            0.02200777786778        1.77430017928591        0.28467907684404
C           -0.83068867787574        2.91842923486088        0.72021438293453
C           -2.28686501610789        2.45164630777057        0.62254057574018
O           -2.50467967408270        1.21657116211267        1.27356774187461
C           -1.82877134970821        0.08663540250355        0.71695559478404
C           -2.60897530899996       -0.47830807148741       -0.49242818068885
C           -4.03347595335647       -0.88795533320625       -0.13889308336377
C           -1.79084375885834       -0.91922766249039        1.89334870652506
C           -1.51252844258454       -2.35122373905548        1.53647329659098
O           -2.23704487599040       -3.18783389307342        2.28142558383816
O           -0.72930160787690       -2.75419336062052        0.71244735436979
H            2.58437458444791       -2.20410474177898        0.78618891359638
H            4.29598154220344       -1.81823522085446        0.61118948980223
H            3.65237116112664       -3.31299717529008       -0.07790979065038
H            2.28466099257929       -1.99168089812179       -1.68503328390725
H            4.00538313538788       -1.62764205889988       -1.86207938847045
H            4.79297643732837        0.61928095228502       -1.53594874505640
H            4.35240032257582        2.97649895501465       -1.08503396002900
H            2.16001638820998        3.72257069288867       -0.22108190408316
H            0.40972942023967       -1.36920518902260       -0.18717580889334
H           -0.67554692912995        3.79473822051357        0.08871849508454
H           -0.59747841153172        3.19516012188373        1.75295812464451
H           -2.96091854173589        3.14970945943416        1.12428713962381
H           -2.57517403245565        2.38407568164410       -0.43563213456007
H           -2.05711208181313       -1.32546288625612       -0.90088936931525
H           -2.63550143419608        0.29626766613509       -1.26206510327111
H           -4.59358438168841       -1.10966189103875       -1.04433771066394
H           -4.04400454482944       -1.77275169021312        0.49281276734332
H           -4.53029569086819       -0.07794547992744        0.38969952906363
H           -2.74375520573850       -0.86419770079465        2.41920495366510
H           -1.01099551529511       -0.59535808075165        2.58842299045485
H           -2.02743119642987       -4.11227900733102        2.06990521341578

 Bond Distances (Angstroems)
 ---------------------------
C1-C2=1.5301         C1-H22=1.0875        C1-H23=1.0878        C1-H24=1.0879        C2-C1=1.5301         C2-C3=1.5026         
C2-H25=1.0930        C2-H26=1.0918        C3-C2=1.5026         C3-C4=1.3812         C3-C8=1.3953         C4-C3=1.3812         
C4-C5=1.3979         C4-H27=1.0809        C5-C4=1.3979         C5-C6=1.3752         C5-H28=1.0805        C6-C5=1.3752         
C6-C7=1.3950         C6-H29=1.0798        C7-C6=1.3950         C7-C8=1.4181         C7-C11=1.4243        C8-C3=1.3953         
C8-C7=1.4181         C8-N9=1.3657         N9-C8=1.3657         N9-C10=1.3677        N9-H30=1.0088        C10-N9=1.3677        
C10-C11=1.3672       C10-C15=1.4984       C11-C7=1.4243        C11-C10=1.3672       C11-C12=1.4919       C12-C11=1.4919       
C12-C13=1.5323       C12-H31=1.0912       C12-H32=1.0943       C13-C12=1.5323       C13-O14=1.4130       C13-H33=1.0924       
C13-H34=1.0988       O14-C13=1.4130       O14-C15=1.4295       C15-C10=1.4984       C15-O14=1.4295       C15-C16=1.5461       
C15-C18=1.5483       C16-C15=1.5461       C16-C17=1.5238       C16-H35=1.0904       C16-H36=1.0923       C17-C16=1.5238       
C17-H37=1.0875       C17-H38=1.0872       C17-H39=1.0874       C18-C15=1.5483       C18-C19=1.5018       C18-H40=1.0898       
C18-H41=1.0937       C19-C18=1.5018       C19-O20=1.3341       C19-O21=1.2062       O20-C19=1.3341       O20-H42=0.9712       
O21-C19=1.2062       H22-C1=1.0875        H23-C1=1.0878        H24-C1=1.0879        H25-C2=1.0930        H26-C2=1.0918        
H27-C4=1.0809        H28-C5=1.0805        H29-C6=1.0798        H30-N9=1.0088        H31-C12=1.0912       H32-C12=1.0943       
H33-C13=1.0924       H34-C13=1.0988       H35-C16=1.0904       H36-C16=1.0923       H37-C17=1.0875       H38-C17=1.0872       
H39-C17=1.0874       H40-C18=1.0898       H41-C18=1.0937       H42-O20=0.9712       
 C  H  Rav=1.0892 sigma=0.0048  Rmin=1.0798  Rmax=1.0988    19
 C  C  Rav=1.4606 sigma=0.0654  Rmin=1.3672  Rmax=1.5483    17
 N  H  Rav=1.0088 sigma=0.0000  Rmin=1.0088  Rmax=1.0088     1
 N  C  Rav=1.3667 sigma=0.0010  Rmin=1.3657  Rmax=1.3677     2
 O  H  Rav=0.9712 sigma=0.0000  Rmin=0.9712  Rmax=0.9712     1
 O  C  Rav=1.3457 sigma=0.0883  Rmin=1.2062  Rmax=1.4295     4

 selected bond angles (degree)
 --------------------
H22-C1-C2=110.70               H23-C1-C2=110.17               H23-C1-H22=108.30              H24-C1-C2=110.47               
H24-C1-H22=108.50              H24-C1-H23=108.64              C3-C2-C1=111.09                H25-C2-C1=109.26               
H25-C2-C3=109.78               H26-C2-C1=109.21               H26-C2-C3=109.41               H26-C2-H25=108.01              
C4-C3-C2=122.34                C8-C3-C2=121.17                C8-C3-C4=116.47                C5-C4-C3=122.13                
H27-C4-C3=119.00               H27-C4-C5=118.87               C6-C5-C4=121.43                H28-C5-C4=118.78               
H28-C5-C6=119.79               C7-C6-C5=118.24                H29-C6-C5=121.22               H29-C6-C7=120.55               
C8-C7-C6=119.66                C11-C7-C6=134.09               C11-C7-C8=106.25               C7-C8-C3=122.08                
N9-C8-C3=129.85                N9-C8-C7=108.07                C10-N9-C8=108.64               H30-N9-C8=127.16               
H30-N9-C10=123.96              C11-C10-N9=110.08              C15-C10-N9=124.98              C15-C10-C11=124.93             

 selected dihedral angles (degree)
 ---------------------------------
C3-C2-C1-H22= 60.76           C3-C2-C1-H23=300.99           C3-C2-C1-H24=180.96           H25-C2-C1-H22=299.49          
H25-C2-C1-H23=179.72          H25-C2-C1-H24= 59.68          H26-C2-C1-H22=181.54          H26-C2-C1-H23= 61.77          
H26-C2-C1-H24=301.73          C4-C3-C2-C1=100.64            C4-C3-C2-H25=221.61           C4-C3-C2-H26=339.98           
C8-C3-C2-C1=282.41            C8-C3-C2-H25= 43.37           C8-C3-C2-H26=161.75           C5-C4-C3-C2=181.39            
C5-C4-C3-C8=359.70            H27-C4-C3-C2=  1.61           H27-C4-C3-C8=179.93           C6-C5-C4-C3=  0.15            
C6-C5-C4-H27=179.93           H28-C5-C4-C3=180.17           H28-C5-C4-H27=359.94          C7-C6-C5-C4=  0.00            
C7-C6-C5-H28=179.99           H29-C6-C5-C4=179.96           H29-C6-C5-H28=359.95          C8-C7-C6-C5=  0.00            
C8-C7-C6-H29=180.04           C11-C7-C6-C5=180.01           C11-C7-C6-H29=  0.05          C7-C8-C3-C2=178.64            
C7-C8-C3-C4=  0.30            N9-C8-C3-C2=357.92            N9-C8-C3-C4=179.58            C3-C8-C7-C6=359.84            
C3-C8-C7-C11=179.83           N9-C8-C7-C6=180.42            N9-C8-C7-C11=  0.41           C10-N9-C8-C3=179.87           
C10-N9-C8-C7=359.24           H30-N9-C8-C3=  5.34           H30-N9-C8-C7=184.70           C11-C10-N9-C8=  0.84          
C11-C10-N9-H30=175.59         C15-C10-N9-C8=179.89          C15-C10-N9-H30=354.64         
           -------------------------------------------------
          |                Final Singlepoint                |
           -------------------------------------------------

          ...................................................
          :                      SETUP                      :
          :.................................................:
          :  # basis functions                 105          :
          :  # atomic orbitals                 105          :
          :  # shells                           63          :
          :  # electrons                       112          :
          :  max. iterations                   250          :
          :  Hamiltonian                  GFN2-xTB          :
          :  restarted?                      false          :
          :  GBSA solvation                  false          :
          :  PC potential                    false          :
          :  electronic temp.          300.0000000     K    :
          :  accuracy                    1.0000000          :
          :  -> integral cutoff          0.2500000E+02      :
          :  -> integral neglect         0.1000000E-07      :
          :  -> SCF convergence          0.1000000E-05 Eh   :
          :  -> wf. convergence          0.1000000E-03 e    :
          :  Broyden damping             0.4000000          :
          :  net charge                          0          :
          :  unpaired electrons                  0          :
          ...................................................

 iter      E             dE          RMSdq      gap      omega  full diag
   1    -63.1534396 -0.631534E+02  0.443E-05    2.63       0.0  T
   2    -63.1534396 -0.151061E-10  0.279E-05    2.63     552.5  T
   3    -63.1534396 -0.182538E-10  0.157E-05    2.63     982.4  T

   *** convergence criteria satisfied after 3 iterations ***

         #    Occupation            Energy/Eh            Energy/eV
      -------------------------------------------------------------
         1        2.0000           -0.7620976             -20.7377
       ...           ...                  ...                  ...
        50        2.0000           -0.4251962             -11.5702
        51        2.0000           -0.4140367             -11.2665
        52        2.0000           -0.4032970             -10.9743
        53        2.0000           -0.3969753             -10.8022
        54        2.0000           -0.3924046             -10.6779
        55        2.0000           -0.3672798              -9.9942
        56        2.0000           -0.3489326              -9.4949 (HOMO)
        57                         -0.2521152              -6.8604 (LUMO)
        58                         -0.2182678              -5.9394
        59                         -0.1856439              -5.0516
        60                         -0.1479729              -4.0265
        61                         -0.0614102              -1.6711
       ...                                ...                  ...
       105                          0.7299978              19.8643
      -------------------------------------------------------------
                  HL-Gap            0.0968173 Eh            2.6345 eV
             Fermi-level           -0.3005239 Eh           -8.1777 eV

 SCC (total)                   0 d,  0 h,  0 min,  0.087 sec
 SCC setup                      ...        0 min,  0.000 sec (  0.324%)
 Dispersion                     ...        0 min,  0.000 sec (  0.327%)
 classical contributions        ...        0 min,  0.000 sec (  0.157%)
 integral evaluation            ...        0 min,  0.007 sec (  8.321%)
 iterations                     ...        0 min,  0.056 sec ( 63.706%)
 molecular gradient             ...        0 min,  0.024 sec ( 27.000%)
 printout                       ...        0 min,  0.000 sec (  0.157%)

         :::::::::::::::::::::::::::::::::::::::::::::::::::::
         ::                     SUMMARY                     ::
         :::::::::::::::::::::::::::::::::::::::::::::::::::::
         :: total energy             -62.295951204822 Eh    ::
         :: gradient norm              0.000244113042 Eh/a0 ::
         :: HOMO-LUMO gap              2.634533420911 eV    ::
         ::.................................................::
         :: SCC energy               -63.152856088112 Eh    ::
         :: -> isotropic ES            0.073519034413 Eh    ::
         :: -> anisotropic ES          0.007016770865 Eh    ::
         :: -> anisotropic XC          0.017315510058 Eh    ::
         :: -> dispersion             -0.045629290463 Eh    ::
         :: repulsion energy           0.856904883289 Eh    ::
         :: add. restraining           0.000000000000 Eh    ::
         :: total charge              -0.000000000000 e     ::
         :::::::::::::::::::::::::::::::::::::::::::::::::::::

           -------------------------------------------------
          |                Property Printout                |
           -------------------------------------------------

    * Orbital Energies and Occupations

         #    Occupation            Energy/Eh            Energy/eV
      -------------------------------------------------------------
         1        2.0000           -0.7620976             -20.7377
       ...           ...                  ...                  ...
        44        2.0000           -0.4467796             -12.1575
        45        2.0000           -0.4429137             -12.0523
        46        2.0000           -0.4399151             -11.9707
        47        2.0000           -0.4377304             -11.9112
        48        2.0000           -0.4355986             -11.8532
        49        2.0000           -0.4309158             -11.7258
        50        2.0000           -0.4251962             -11.5702
        51        2.0000           -0.4140367             -11.2665
        52        2.0000           -0.4032970             -10.9743
        53        2.0000           -0.3969753             -10.8022
        54        2.0000           -0.3924046             -10.6779
        55        2.0000           -0.3672798              -9.9942
        56        2.0000           -0.3489326              -9.4949 (HOMO)
        57                         -0.2521152              -6.8604 (LUMO)
        58                         -0.2182678              -5.9394
        59                         -0.1856439              -5.0516
        60                         -0.1479729              -4.0265
        61                         -0.0614102              -1.6711
        62                         -0.0061274              -0.1667
        63                          0.0222180               0.6046
        64                          0.0436937               1.1890
        65                          0.0684104               1.8615
        66                          0.0830123               2.2589
        67                          0.0913766               2.4865
       ...                                ...                  ...
       105                          0.7299978              19.8643
      -------------------------------------------------------------
                  HL-Gap            0.0968173 Eh            2.6345 eV
             Fermi-level           -0.3005239 Eh           -8.1777 eV

     #   Z          covCN         q      C6AA      α(0)
     1   6 C        3.753    -0.098    22.433     6.754
     2   6 C        3.805    -0.057    21.588     6.615
     3   6 C        2.960    -0.010    28.260     8.719
     4   6 C        2.929    -0.048    29.199     8.862
     5   6 C        2.919    -0.044    29.096     8.845
     6   6 C        2.911    -0.042    29.053     8.838
     7   6 C        3.109    -0.024    28.453     8.739
     8   6 C        3.101     0.038    27.019     8.518
     9   7 N        2.774    -0.125    23.719     7.233
    10   6 C        3.095     0.013    27.620     8.613
    11   6 C        3.073    -0.039    28.882     8.812
    12   6 C        3.805    -0.064    21.725     6.635
    13   6 C        3.697     0.082    19.376     6.296
    14   8 O        1.701    -0.324    19.423     5.950
    15   6 C        3.790     0.143    18.293     6.091
    16   6 C        3.803    -0.065    21.739     6.638
    17   6 C        3.751    -0.104    22.545     6.771
    18   6 C        3.806    -0.099    22.382     6.735
    19   6 C        2.687     0.367    20.773     7.459
    20   8 O        1.660    -0.368    20.243     6.074
    21   8 O        0.856    -0.424    22.158     6.311
    22   1 H        0.925     0.035     2.515     2.480
    23   1 H        0.925     0.035     2.517     2.481
    24   1 H        0.925     0.034     2.537     2.491
    25   1 H        0.924     0.033     2.548     2.496
    26   1 H        0.924     0.035     2.520     2.482
    27   1 H        0.926     0.024     2.675     2.558
    28   1 H        0.926     0.022     2.700     2.569
    29   1 H        0.926     0.023     2.689     2.565
    30   1 H        0.860     0.192     1.149     1.679
    31   1 H        0.924     0.039     2.467     2.456
    32   1 H        0.924     0.044     2.398     2.422
    33   1 H        0.924     0.046     2.375     2.410
    34   1 H        0.923     0.021     2.724     2.581
    35   1 H        0.924     0.039     2.466     2.456
    36   1 H        0.924     0.038     2.470     2.458
    37   1 H        0.925     0.038     2.474     2.460
    38   1 H        0.925     0.033     2.538     2.492
    39   1 H        0.925     0.052     2.301     2.372
    40   1 H        0.925     0.093     1.849     2.126
    41   1 H        0.924     0.086     1.919     2.166
    42   1 H        0.804     0.333     0.631     1.247

 Mol. C6AA /au·bohr⁶  :      17926.254958
 Mol. C8AA /au·bohr⁸  :     415768.497381
 Mol. α(0) /au        :        204.957820


Wiberg/Mayer (AO) data.
largest (>0.10) Wiberg bond orders for each atom

 ---------------------------------------------------------------------------
     #   Z sym  total        # sym  WBO       # sym  WBO       # sym  WBO
 ---------------------------------------------------------------------------
     1   6 C    3.997 --     2 C    1.003    23 H    0.989    22 H    0.987
                            24 H    0.987
     2   6 C    3.997 --     3 C    1.009     1 C    1.003    26 H    0.976
                            25 H    0.971
     3   6 C    3.985 --     4 C    1.470     8 C    1.310     2 C    1.009
                             6 C    0.109
     4   6 C    3.987 --     3 C    1.470     5 C    1.369    27 H    0.970
     5   6 C    3.990 --     6 C    1.507     4 C    1.369    28 H    0.972
     6   6 C    3.989 --     5 C    1.507     7 C    1.324    29 H    0.970
                             3 C    0.109
     7   6 C    3.983 --     6 C    1.324     8 C    1.247    11 C    1.211
     8   6 C    3.956 --     3 C    1.310     7 C    1.247     9 N    1.180
     9   7 N    3.540 --    10 C    1.188     8 C    1.180    30 H    0.913
    10   6 C    3.952 --    11 C    1.541     9 N    1.188    15 C    0.988
    11   6 C    3.971 --    10 C    1.541     7 C    1.211    12 C    1.014
    12   6 C    3.997 --    11 C    1.014    13 C    0.993    31 H    0.970
                            32 H    0.964
    13   6 C    3.953 --    12 C    0.993    14 O    0.982    33 H    0.970
                            34 H    0.968
    14   8 O    2.075 --    13 C    0.982    15 C    0.962
    15   6 C    3.952 --    10 C    0.988    16 C    0.962    14 O    0.962
                            18 C    0.954
    16   6 C    3.993 --    17 C    1.019    35 H    0.974    36 H    0.973
                            15 C    0.962
    17   6 C    3.995 --    16 C    1.019    38 H    0.987    37 H    0.986
                            39 H    0.985
    18   6 C    3.986 --    19 C    0.990    40 H    0.962    15 C    0.954
                            41 H    0.938
    19   6 C    3.909 --    21 O    1.732    20 O    1.147    18 C    0.990
    20   8 O    2.213 --    19 C    1.147    42 H    0.863    21 O    0.169
    21   8 O    2.035 --    19 C    1.732    20 O    0.169
    22   1 H    0.999 --     1 C    0.987
    23   1 H    0.999 --     1 C    0.989
    24   1 H    0.998 --     1 C    0.987
    25   1 H    0.999 --     2 C    0.971
    26   1 H    0.998 --     2 C    0.976
    27   1 H    0.999 --     4 C    0.970
    28   1 H    0.999 --     5 C    0.972
    29   1 H    0.998 --     6 C    0.970
    30   1 H    0.963 --     9 N    0.913
    31   1 H    0.998 --    12 C    0.970
    32   1 H    0.998 --    12 C    0.964
    33   1 H    0.997 --    13 C    0.970
    34   1 H    1.000 --    13 C    0.968
    35   1 H    0.998 --    16 C    0.974
    36   1 H    0.999 --    16 C    0.973
    37   1 H    0.998 --    17 C    0.986
    38   1 H    0.999 --    17 C    0.987
    39   1 H    0.997 --    17 C    0.985
    40   1 H    0.991 --    18 C    0.962
    41   1 H    0.993 --    18 C    0.938
    42   1 H    0.889 --    20 O    0.863
 ---------------------------------------------------------------------------

Topologies differ in total number of bonds
Writing topology from bond orders to xtbtopo.mol

molecular dipole:
                 x           y           z       tot (Debye)
 q only:       -0.627      -0.575       0.287
   full:       -0.663      -0.870       0.259       2.857
molecular quadrupole (traceless):
                xx          xy          yy          xz          yz          zz
 q only:       -3.515       0.687       5.228       0.351      -3.990      -1.713
  q+dip:       -4.352       1.242       9.525       0.935      -3.731      -5.173
   full:       -5.203       0.981       8.402       2.431      -4.649      -3.199

           -------------------------------------------------
          |                Geometry Summary                 |
           -------------------------------------------------

      molecular mass/u    :      287.3541840
   center of mass at/Å    :        0.0008989       0.0101049       0.2481038
  moments of inertia/u·Å² :        0.1099175E+04   0.2009942E+04   0.2825444E+04
rotational constants/cm⁻¹ :        0.1533663E-01   0.8387125E-02   0.5966366E-02

 * 40 selected distances

     #   Z          #   Z                                           value/Å
     1   6 C        2   6 C                                       1.5300918
     3   6 C        4   6 C                                       1.3812192
     4   6 C        5   6 C                                       1.3978594
     5   6 C        6   6 C                                       1.3752450
     6   6 C        7   6 C                                       1.3950416
     3   6 C        8   6 C                                       1.3953381
     7   6 C        8   6 C                                       1.4180631
     8   6 C        9   7 N                                       1.3657491
     9   7 N       10   6 C                                       1.3676873
     7   6 C       11   6 C                                       1.4243452
    10   6 C       11   6 C                                       1.3672168
    11   6 C       12   6 C                                       1.4919162
    12   6 C       13   6 C                                       1.5322782 (max)
    13   6 C       14   8 O                                       1.4130430
    10   6 C       15   6 C                                       1.4984325
    14   8 O       15   6 C                                       1.4294839
    16   6 C       17   6 C                                       1.5238112
    19   6 C       20   8 O                                       1.3340895
    19   6 C       21   8 O                                       1.2061707
     1   6 C       22   1 H                                       1.0875321
     1   6 C       23   1 H                                       1.0878271
     1   6 C       24   1 H                                       1.0878853
     2   6 C       25   1 H                                       1.0930019
     2   6 C       26   1 H                                       1.0917941
     4   6 C       27   1 H                                       1.0809312
     5   6 C       28   1 H                                       1.0805028
     6   6 C       29   1 H                                       1.0798443
     9   7 N       30   1 H                                       1.0087833
    12   6 C       31   1 H                                       1.0912258
    12   6 C       32   1 H                                       1.0943157
    13   6 C       33   1 H                                       1.0924240
    13   6 C       34   1 H                                       1.0988255
    16   6 C       35   1 H                                       1.0904426
    16   6 C       36   1 H                                       1.0922511
    17   6 C       37   1 H                                       1.0875226
    17   6 C       38   1 H                                       1.0872111
    17   6 C       39   1 H                                       1.0873620
    18   6 C       40   1 H                                       1.0897677
    18   6 C       41   1 H                                       1.0937016
    20   8 O       42   1 H                                       0.9712248 (min)

 * 6 distinct bonds (by element types)

   Z      Z             #   av. dist./Å        max./Å        min./Å
   1 H    6 C          19     1.0891773     1.0988255     1.0798443
   6 C    6 C          13     1.4408353     1.5322782     1.3672168
   1 H    7 N           1     1.0087833     1.0087833     1.0087833
   6 C    7 N           2     1.3667182     1.3676873     1.3657491
   1 H    8 O           1     0.9712248     0.9712248     0.9712248
   6 C    8 O           4     1.3456968     1.4294839     1.2061707


optimized geometry written to: xtbopt.xyz


           -------------------------------------------------
          | TOTAL ENERGY              -62.295951204822 Eh   |
          | GRADIENT NORM               0.000244113042 Eh/α |
          | HOMO-LUMO GAP               2.634533420911 eV   |
           -------------------------------------------------

------------------------------------------------------------------------
 * finished run on 2025/05/15 at 16:17:50.014     
------------------------------------------------------------------------
 total:
 * wall-time:     0 d,  0 h,  0 min,  1.918 sec
 *  cpu-time:     0 d,  0 h,  0 min,  1.092 sec
 * ratio c/w:     0.569 speedup
 SCF:
 * wall-time:     0 d,  0 h,  0 min,  0.105 sec
 *  cpu-time:     0 d,  0 h,  0 min,  0.057 sec
 * ratio c/w:     0.541 speedup
 ANC optimizer:
 * wall-time:     0 d,  0 h,  0 min,  1.799 sec
 *  cpu-time:     0 d,  0 h,  0 min,  1.024 sec
 * ratio c/w:     0.569 speedup



----- Single-point -----
      -----------------------------------------------------------      
     |                   =====================                   |     
     |                           x T B                           |     
     |                   =====================                   |     
     |                         S. Grimme                         |     
     |          Mulliken Center for Theoretical Chemistry        |     
     |                    University of Bonn                     |     
      -----------------------------------------------------------      

   * xtb version 6.7.1 (edcfbbe) compiled by 'conda@3ef47c1a292c' on 2024-11-25

   xtb is free software: you can redistribute it and/or modify it under
   the terms of the GNU Lesser General Public License as published by
   the Free Software Foundation, either version 3 of the License, or
   (at your option) any later version.
   
   xtb is distributed in the hope that it will be useful,
   but WITHOUT ANY WARRANTY; without even the implied warranty of
   MERCHANTABILITY or FITNESS FOR A PARTICULAR PURPOSE.  See the
   GNU Lesser General Public License for more details.
   
   Cite this work as:
   * C. Bannwarth, E. Caldeweyher, S. Ehlert, A. Hansen, P. Pracht,
     J. Seibert, S. Spicher, S. Grimme, WIREs Comput. Mol. Sci., 2020, 11,
     e01493. DOI: 10.1002/wcms.1493
   
   for GFN2-xTB:
   * C. Bannwarth, S. Ehlert and S. Grimme., J. Chem. Theory Comput., 2019,
     15, 1652-1671. DOI: 10.1021/acs.jctc.8b01176
   for GFN1-xTB:
   * S. Grimme, C. Bannwarth, P. Shushkov, J. Chem. Theory Comput., 2017,
     13, 1989-2009. DOI: 10.1021/acs.jctc.7b00118
   for GFN0-xTB:
   * P. Pracht, E. Caldeweyher, S. Ehlert, S. Grimme, ChemRxiv, 2019, preprint.
     DOI: 10.26434/chemrxiv.8326202.v1
   for GFN-FF:
   * S. Spicher and S. Grimme, Angew. Chem. Int. Ed., 2020, 59, 15665-15673.
     DOI: 10.1002/anie.202004239
   
   for ALPB and GBSA implicit solvation:
   * S. Ehlert, M. Stahn, S. Spicher, S. Grimme, J. Chem. Theory Comput.,
     2021, 17, 4250-4261. DOI: 10.1021/acs.jctc.1c00471
   
   for ddCOSMO and CPCM-X implicit solvation:
   * M. Stahn, S. Ehlert, S. Grimme, J. Phys. Chem. A,
     2023, XX, XXXX-XXXX. DOI: 10.1021/acs.jpca.3c04382
   
   for DFT-D4:
   * E. Caldeweyher, C. Bannwarth and S. Grimme, J. Chem. Phys., 2017,
     147, 034112. DOI: 10.1063/1.4993215
   * E. Caldeweyher, S. Ehlert, A. Hansen, H. Neugebauer, S. Spicher,
     C. Bannwarth and S. Grimme, J. Chem. Phys., 2019, 150, 154122.
     DOI: 10.1063/1.5090222
   * E. Caldeweyher, J.-M. Mewes, S. Ehlert and S. Grimme, Phys. Chem. Chem. Phys.
     2020, 22, 8499-8512. DOI: 10.1039/D0CP00502A
   
   for sTDA-xTB:
   * S. Grimme and C. Bannwarth, J. Chem. Phys., 2016, 145, 054103.
     DOI: 10.1063/1.4959605
   
   in the mass-spec context:
   * V. Asgeirsson, C. Bauer and S. Grimme, Chem. Sci., 2017, 8, 4879.
     DOI: 10.1039/c7sc00601b
   * J. Koopman and S. Grimme, ACS Omega 2019, 4, 12, 15120-15133.
     DOI: 10.1021/acsomega.9b02011
   
   for metadynamics refer to:
   * S. Grimme, J. Chem. Theory Comput., 2019, 155, 2847-2862
     DOI: 10.1021/acs.jctc.9b00143
   
   for SPH calculations refer to:
   * S. Spicher and S. Grimme, J. Chem. Theory Comput., 2021, 17, 1701-1714
     DOI: 10.1021/acs.jctc.0c01306
   
   for ONIOM refer to:
   * C. Plett, A. Katbashev, S. Ehlert, S. Grimme, M. Bursch,
     Phys. Chem. Chem. Phys., 2023, 25, 17860-17868. DOI: 10.1039/D3CP02178E
   
   for DIPRO refer to:
   * J. Kohn, N. Gildemeister, S. Grimme, D. Fazzi, A. Hansen,
     J. Chem. Phys., 2023, just accepted.
   
   for PTB refer to:
   * S. Grimme, M. Mueller, A. Hansen, J. Chem. Phys., 2023, 158, 124111.
     DOI: 10.1063/5.0137838
   
   with help from (in alphabetical order)
   P. Atkinson, C. Bannwarth, F. Bohle, G. Brandenburg, E. Caldeweyher
   M. Checinski, S. Dohm, S. Ehlert, S. Ehrlich, I. Gerasimov, C. Hölzer
   A. Katbashev, J. Kohn, J. Koopman, C. Lavigne, S. Lehtola, F. März, M. Müller,
   F. Musil, H. Neugebauer, J. Pisarek, C. Plett, P. Pracht, F. Pultar,
   J. Seibert, P. Shushkov, S. Spicher, M. Stahn, M. Steiner, T. Strunk,
   J. Stückrath, T. Rose, and J. Unsleber
   
 * started run on 2025/05/15 at 16:17:50.044     
   ID    Z sym.   atoms
    1    6 C      1-8, 10-13, 15-19
    2    7 N      9
    3    8 O      14, 20, 21
    4    1 H      22-42

           -------------------------------------------------
          |                Calculation Setup                |
           -------------------------------------------------

          program call               : xtb /rds/general/user/hgt20/home/callum/QDESCP/Etodolac_rdkit_conf_3/Etodolac_rdkit_conf_3.xyz --acc 1 --gfn 2 --chrg 0 --uhf 0 --etemp 300 --input /rds/general/user/hgt20/home/callum/QDESCP/Etodolac_rdkit_conf_3/Etodolac_rdkit_conf_3_xtb.inp -P 1
          hostname                   : login-c
          coordinate file            : /rds/general/user/hgt20/home/callum/QDESCP/Etodolac_rdkit_conf_3/Etodolac_rdkit_conf_3.xyz
          omp threads                :                     1


           -------------------------------------------------
          |                 G F N 2 - x T B                 |
           -------------------------------------------------

        Reference                      10.1021/acs.jctc.8b01176
      * Hamiltonian:
        H0-scaling (s, p, d)           1.850000    2.230000    2.230000
        zeta-weighting                 0.500000
      * Dispersion:
        s8                             2.700000
        a1                             0.520000
        a2                             5.000000
        s9                             5.000000
      * Repulsion:
        kExp                           1.500000    1.000000
        rExp                           1.000000
      * Coulomb:
        alpha                          2.000000
        third order                    shell-resolved
        anisotropic                    true
        a3                             3.000000
        a5                             4.000000
        cn-shift                       1.200000
        cn-exp                         4.000000
        max-rad                        5.000000

q/qsh data taken from xtbrestart
CAMM data taken from xtbrestart

          ...................................................
          :                      SETUP                      :
          :.................................................:
          :  # basis functions                 105          :
          :  # atomic orbitals                 105          :
          :  # shells                           63          :
          :  # electrons                       112          :
          :  max. iterations                   250          :
          :  Hamiltonian                  GFN2-xTB          :
          :  restarted?                       true          :
          :  GBSA solvation                  false          :
          :  PC potential                    false          :
          :  electronic temp.          300.0000000     K    :
          :  accuracy                    1.0000000          :
          :  -> integral cutoff          0.2500000E+02      :
          :  -> integral neglect         0.1000000E-07      :
          :  -> SCF convergence          0.1000000E-05 Eh   :
          :  -> wf. convergence          0.1000000E-03 e    :
          :  Broyden damping             0.4000000          :
          :  net charge                          0          :
          :  unpaired electrons                  0          :
          ...................................................

 iter      E             dE          RMSdq      gap      omega  full diag
   1    -63.1534396 -0.631534E+02  0.449E-06    2.63       0.0  T
   2    -63.1534396 -0.213163E-12  0.288E-06    2.63    5358.3  T
   3    -63.1534396 -0.156319E-12  0.157E-06    2.63    9798.9  T

   *** convergence criteria satisfied after 3 iterations ***

         #    Occupation            Energy/Eh            Energy/eV
      -------------------------------------------------------------
         1        2.0000           -0.7620978             -20.7377
       ...           ...                  ...                  ...
        50        2.0000           -0.4251962             -11.5702
        51        2.0000           -0.4140366             -11.2665
        52        2.0000           -0.4032969             -10.9743
        53        2.0000           -0.3969752             -10.8022
        54        2.0000           -0.3924045             -10.6779
        55        2.0000           -0.3672797              -9.9942
        56        2.0000           -0.3489325              -9.4949 (HOMO)
        57                         -0.2521153              -6.8604 (LUMO)
        58                         -0.2182677              -5.9394
        59                         -0.1856438              -5.0516
        60                         -0.1479729              -4.0265
        61                         -0.0614101              -1.6711
       ...                                ...                  ...
       105                          0.7299979              19.8643
      -------------------------------------------------------------
                  HL-Gap            0.0968171 Eh            2.6345 eV
             Fermi-level           -0.3005239 Eh           -8.1777 eV

 SCC (total)                   0 d,  0 h,  0 min,  0.061 sec
 SCC setup                      ...        0 min,  0.000 sec (  0.639%)
 Dispersion                     ...        0 min,  0.000 sec (  0.816%)
 classical contributions        ...        0 min,  0.000 sec (  0.239%)
 integral evaluation            ...        0 min,  0.030 sec ( 49.104%)
 iterations                     ...        0 min,  0.007 sec ( 11.685%)
 molecular gradient             ...        0 min,  0.023 sec ( 37.188%)
 printout                       ...        0 min,  0.000 sec (  0.319%)

         :::::::::::::::::::::::::::::::::::::::::::::::::::::
         ::                     SUMMARY                     ::
         :::::::::::::::::::::::::::::::::::::::::::::::::::::
         :: total energy             -62.295951204825 Eh    ::
         :: gradient norm              0.000244101238 Eh/a0 ::
         :: HOMO-LUMO gap              2.634528423999 eV    ::
         ::.................................................::
         :: SCC energy               -63.152856088114 Eh    ::
         :: -> isotropic ES            0.073518940708 Eh    ::
         :: -> anisotropic ES          0.007016762030 Eh    ::
         :: -> anisotropic XC          0.017315511010 Eh    ::
         :: -> dispersion             -0.045629291643 Eh    ::
         :: repulsion energy           0.856904883289 Eh    ::
         :: add. restraining           0.000000000000 Eh    ::
         :: total charge               0.000000000000 e     ::
         :::::::::::::::::::::::::::::::::::::::::::::::::::::

           -------------------------------------------------
          |                Property Printout                |
           -------------------------------------------------

    * Orbital Energies and Occupations

         #    Occupation            Energy/Eh            Energy/eV
      -------------------------------------------------------------
         1        2.0000           -0.7620978             -20.7377
       ...           ...                  ...                  ...
        44        2.0000           -0.4467796             -12.1575
        45        2.0000           -0.4429138             -12.0523
        46        2.0000           -0.4399152             -11.9707
        47        2.0000           -0.4377303             -11.9112
        48        2.0000           -0.4355986             -11.8532
        49        2.0000           -0.4309158             -11.7258
        50        2.0000           -0.4251962             -11.5702
        51        2.0000           -0.4140366             -11.2665
        52        2.0000           -0.4032969             -10.9743
        53        2.0000           -0.3969752             -10.8022
        54        2.0000           -0.3924045             -10.6779
        55        2.0000           -0.3672797              -9.9942
        56        2.0000           -0.3489325              -9.4949 (HOMO)
        57                         -0.2521153              -6.8604 (LUMO)
        58                         -0.2182677              -5.9394
        59                         -0.1856438              -5.0516
        60                         -0.1479729              -4.0265
        61                         -0.0614101              -1.6711
        62                         -0.0061274              -0.1667
        63                          0.0222179               0.6046
        64                          0.0436936               1.1890
        65                          0.0684103               1.8615
        66                          0.0830123               2.2589
        67                          0.0913767               2.4865
       ...                                ...                  ...
       105                          0.7299979              19.8643
      -------------------------------------------------------------
                  HL-Gap            0.0968171 Eh            2.6345 eV
             Fermi-level           -0.3005239 Eh           -8.1777 eV

     #   Z          covCN         q      C6AA      α(0)
     1   6 C        3.753    -0.098    22.433     6.754
     2   6 C        3.805    -0.057    21.588     6.615
     3   6 C        2.960    -0.010    28.260     8.719
     4   6 C        2.929    -0.048    29.199     8.862
[...]
     DOI: 10.26434/chemrxiv.8326202.v1
   for GFN-FF:
   * S. Spicher and S. Grimme, Angew. Chem. Int. Ed., 2020, 59, 15665-15673.
     DOI: 10.1002/anie.202004239
   
   for ALPB and GBSA implicit solvation:
   * S. Ehlert, M. Stahn, S. Spicher, S. Grimme, J. Chem. Theory Comput.,
     2021, 17, 4250-4261. DOI: 10.1021/acs.jctc.1c00471
   
   for ddCOSMO and CPCM-X implicit solvation:
   * M. Stahn, S. Ehlert, S. Grimme, J. Phys. Chem. A,
     2023, XX, XXXX-XXXX. DOI: 10.1021/acs.jpca.3c04382
   
   for DFT-D4:
   * E. Caldeweyher, C. Bannwarth and S. Grimme, J. Chem. Phys., 2017,
     147, 034112. DOI: 10.1063/1.4993215
   * E. Caldeweyher, S. Ehlert, A. Hansen, H. Neugebauer, S. Spicher,
     C. Bannwarth and S. Grimme, J. Chem. Phys., 2019, 150, 154122.
     DOI: 10.1063/1.5090222
   * E. Caldeweyher, J.-M. Mewes, S. Ehlert and S. Grimme, Phys. Chem. Chem. Phys.
     2020, 22, 8499-8512. DOI: 10.1039/D0CP00502A
   
   for sTDA-xTB:
   * S. Grimme and C. Bannwarth, J. Chem. Phys., 2016, 145, 054103.
     DOI: 10.1063/1.4959605
   
   in the mass-spec context:
   * V. Asgeirsson, C. Bauer and S. Grimme, Chem. Sci., 2017, 8, 4879.
     DOI: 10.1039/c7sc00601b
   * J. Koopman and S. Grimme, ACS Omega 2019, 4, 12, 15120-15133.
     DOI: 10.1021/acsomega.9b02011
   
   for metadynamics refer to:
   * S. Grimme, J. Chem. Theory Comput., 2019, 155, 2847-2862
     DOI: 10.1021/acs.jctc.9b00143
   
   for SPH calculations refer to:
   * S. Spicher and S. Grimme, J. Chem. Theory Comput., 2021, 17, 1701-1714
     DOI: 10.1021/acs.jctc.0c01306
   
   for ONIOM refer to:
   * C. Plett, A. Katbashev, S. Ehlert, S. Grimme, M. Bursch,
     Phys. Chem. Chem. Phys., 2023, 25, 17860-17868. DOI: 10.1039/D3CP02178E
   
   for DIPRO refer to:
   * J. Kohn, N. Gildemeister, S. Grimme, D. Fazzi, A. Hansen,
     J. Chem. Phys., 2023, just accepted.
   
   for PTB refer to:
   * S. Grimme, M. Mueller, A. Hansen, J. Chem. Phys., 2023, 158, 124111.
     DOI: 10.1063/5.0137838
   
   with help from (in alphabetical order)
   P. Atkinson, C. Bannwarth, F. Bohle, G. Brandenburg, E. Caldeweyher
   M. Checinski, S. Dohm, S. Ehlert, S. Ehrlich, I. Gerasimov, C. Hölzer
   A. Katbashev, J. Kohn, J. Koopman, C. Lavigne, S. Lehtola, F. März, M. Müller,
   F. Musil, H. Neugebauer, J. Pisarek, C. Plett, P. Pracht, F. Pultar,
   J. Seibert, P. Shushkov, S. Spicher, M. Stahn, M. Steiner, T. Strunk,
   J. Stückrath, T. Rose, and J. Unsleber
   
 * started run on 2025/05/15 at 16:17:52.311     
   ID    Z sym.   atoms
    1    6 C      1-8, 10-13, 15-19
    2    7 N      9
    3    8 O      14, 20, 21
    4    1 H      22-42

           -------------------------------------------------
          |                Calculation Setup                |
           -------------------------------------------------

          program call               : xtb /rds/general/user/hgt20/home/callum/QDESCP/Etodolac_rdkit_conf_3/Etodolac_rdkit_conf_3.xyz --acc 1 --gfn 2 --chrg 0 --uhf 2 --etemp 300 --input /rds/general/user/hgt20/home/callum/QDESCP/Etodolac_rdkit_conf_3/Etodolac_rdkit_conf_3_xtb.inp -P 1
          hostname                   : login-c
          coordinate file            : /rds/general/user/hgt20/home/callum/QDESCP/Etodolac_rdkit_conf_3/Etodolac_rdkit_conf_3.xyz
          omp threads                :                     1


           -------------------------------------------------
          |                 G F N 2 - x T B                 |
           -------------------------------------------------

        Reference                      10.1021/acs.jctc.8b01176
      * Hamiltonian:
        H0-scaling (s, p, d)           1.850000    2.230000    2.230000
        zeta-weighting                 0.500000
      * Dispersion:
        s8                             2.700000
        a1                             0.520000
        a2                             5.000000
        s9                             5.000000
      * Repulsion:
        kExp                           1.500000    1.000000
        rExp                           1.000000
      * Coulomb:
        alpha                          2.000000
        third order                    shell-resolved
        anisotropic                    true
        a3                             3.000000
        a5                             4.000000
        cn-shift                       1.200000
        cn-exp                         4.000000
        max-rad                        5.000000


          ...................................................
          :                      SETUP                      :
          :.................................................:
          :  # basis functions                 105          :
          :  # atomic orbitals                 105          :
          :  # shells                           63          :
          :  # electrons                       112          :
          :  max. iterations                   250          :
          :  Hamiltonian                  GFN2-xTB          :
          :  restarted?                      false          :
          :  GBSA solvation                  false          :
          :  PC potential                    false          :
          :  electronic temp.          300.0000000     K    :
          :  accuracy                    1.0000000          :
          :  -> integral cutoff          0.2500000E+02      :
          :  -> integral neglect         0.1000000E-07      :
          :  -> SCF convergence          0.1000000E-05 Eh   :
          :  -> wf. convergence          0.1000000E-03 e    :
          :  Broyden damping             0.4000000          :
          :  net charge                          0          :
          :  unpaired electrons                  2          :
          ...................................................

 iter      E             dE          RMSdq      gap      omega  full diag
   1    -62.8326336 -0.628326E+02  0.380E+00    0.94       0.0  T
   2    -62.7227232  0.109910E+00  0.326E+00    1.00       1.0  T
   3    -62.6251896  0.975336E-01  0.218E+00    0.90       1.0  T
   4    -62.8083923 -0.183203E+00  0.214E+00    1.28       1.0  T
   5    -62.9578751 -0.149483E+00  0.104E+00    0.12       1.0  T
   6    -63.0012376 -0.433625E-01  0.948E-01    0.27       1.0  T
   7    -63.0073048 -0.606725E-02  0.869E-01    0.24       1.0  T
   8    -63.0148310 -0.752614E-02  0.562E-01    0.12       1.0  T
   9    -63.0161248 -0.129383E-02  0.546E-01    0.25       1.0  T
  10    -63.0228498 -0.672502E-02  0.196E-01    0.19       1.0  T
  11    -63.0238922 -0.104234E-02  0.862E-02    0.14       1.0  T
  12    -63.0243586 -0.466439E-03  0.270E-02    0.15       1.0  T
  13    -63.0243881 -0.295367E-04  0.902E-03    0.15       1.7  T
  14    -63.0243900 -0.188209E-05  0.720E-03    0.16       2.1  T
  15    -63.0243932 -0.322261E-05  0.106E-03    0.16      14.5  T
  16    -63.0243933 -0.158522E-07  0.661E-04    0.16      23.3  T
  17    -63.0243932  0.540737E-07  0.981E-04    0.16      15.7  T

   *** convergence criteria satisfied after 17 iterations ***

         #    Occupation            Energy/Eh            Energy/eV
      -------------------------------------------------------------
         1        2.0000           -0.7349592             -19.9993
       ...           ...                  ...                  ...
        51        2.0000           -0.4161582             -11.3242
        52        2.0000           -0.4098976             -11.1539
        53        2.0000           -0.4083878             -11.1128
        54        2.0000           -0.3971917             -10.8081
        55        1.9994           -0.3762534             -10.2384
        56        1.0006           -0.3620352              -9.8515
        57        0.9538           -0.2277585              -6.1976 (HOMO)
        58        0.0462           -0.2220075              -6.0411 (LUMO)
        59                         -0.1957456              -5.3265
        60                         -0.1607313              -4.3737
        61                         -0.0708468              -1.9278
        62                         -0.0054377              -0.1480
       ...                                ...                  ...
       105                          0.7188091              19.5598
      -------------------------------------------------------------
                  HL-Gap            0.0057510 Eh            0.1565 eV
             Fermi-level           -0.2970137 Eh           -8.0822 eV

 transition dipole moment (au) for excitation:          56          57
     X       Y       Z   
  -0.6437  -1.5015   0.0515  total (au/Debye):    1.634   4.154
 dE (eV)             :    3.654
 oscillator strength :  0.33820E+00

 SCC (total)                   0 d,  0 h,  0 min,  0.117 sec
 SCC setup                      ...        0 min,  0.000 sec (  0.276%)
 Dispersion                     ...        0 min,  0.000 sec (  0.365%)
 classical contributions        ...        0 min,  0.000 sec (  0.120%)
 integral evaluation            ...        0 min,  0.007 sec (  6.390%)
 iterations                     ...        0 min,  0.080 sec ( 68.158%)
 molecular gradient             ...        0 min,  0.022 sec ( 18.986%)
 printout                       ...        0 min,  0.007 sec (  5.700%)

         :::::::::::::::::::::::::::::::::::::::::::::::::::::
         ::                     SUMMARY                     ::
         :::::::::::::::::::::::::::::::::::::::::::::::::::::
         :: total energy             -62.166904838419 Eh    ::
         :: gradient norm              0.149634062653 Eh/a0 ::
         :: HOMO-LUMO gap              0.156493851360 eV    ::
         ::.................................................::
         :: SCC energy               -63.023809721708 Eh    ::
         :: -> isotropic ES            0.076807516524 Eh    ::
         :: -> anisotropic ES          0.004569733903 Eh    ::
         :: -> anisotropic XC          0.016748849868 Eh    ::
         :: -> dispersion             -0.045520848610 Eh    ::
         :: repulsion energy           0.856904883289 Eh    ::
         :: add. restraining           0.000000000000 Eh    ::
         :: total charge               0.000000000000 e     ::
         :::::::::::::::::::::::::::::::::::::::::::::::::::::

           -------------------------------------------------
          |                Property Printout                |
           -------------------------------------------------

    * Orbital Energies and Occupations

         #    Occupation            Energy/Eh            Energy/eV
      -------------------------------------------------------------
         1        2.0000           -0.7349592             -19.9993
       ...           ...                  ...                  ...
        45        2.0000           -0.4485041             -12.2044
        46        2.0000           -0.4461018             -12.1390
        47        2.0000           -0.4373190             -11.9001
        48        2.0000           -0.4359987             -11.8641
        49        2.0000           -0.4286318             -11.6637
        50        2.0000           -0.4217382             -11.4761
        51        2.0000           -0.4161582             -11.3242
        52        2.0000           -0.4098976             -11.1539
        53        2.0000           -0.4083878             -11.1128
        54        2.0000           -0.3971917             -10.8081
        55        1.9994           -0.3762534             -10.2384
        56        1.0006           -0.3620352              -9.8515
        57        0.9538           -0.2277585              -6.1976 (HOMO)
        58        0.0462           -0.2220075              -6.0411 (LUMO)
        59                         -0.1957456              -5.3265
        60                         -0.1607313              -4.3737
        61                         -0.0708468              -1.9278
        62                         -0.0054377              -0.1480
        63                          0.0183922               0.5005
        64                          0.0489295               1.3314
        65                          0.0744743               2.0265
        66                          0.0789720               2.1489
        67                          0.0837522               2.2790
        68                          0.0958647               2.6086
       ...                                ...                  ...
       105                          0.7188091              19.5598
      -------------------------------------------------------------
                  HL-Gap            0.0057510 Eh            0.1565 eV
             Fermi-level           -0.2970137 Eh           -8.0822 eV

     #   Z          covCN         q      C6AA      α(0)
     1   6 C        3.753    -0.099    22.444     6.756
     2   6 C        3.805    -0.057    21.589     6.615
     3   6 C        2.960    -0.016    28.420     8.744
     4   6 C        2.929    -0.042    29.045     8.838
     5   6 C        2.919    -0.041    29.029     8.835
     6   6 C        2.911    -0.042    29.055     8.839
     7   6 C        3.109    -0.033    28.678     8.774
     8   6 C        3.101     0.040    26.982     8.512
     9   7 N        2.774    -0.098    23.150     7.146
    10   6 C        3.095     0.005    27.807     8.643
    11   6 C        3.073    -0.002    27.989     8.674
    12   6 C        3.805    -0.066    21.768     6.642
    13   6 C        3.697     0.082    19.378     6.296
    14   8 O        1.701    -0.322    19.386     5.945
    15   6 C        3.790     0.142    18.304     6.093
    16   6 C        3.803    -0.063    21.713     6.634
    17   6 C        3.751    -0.104    22.541     6.771
    18   6 C        3.806    -0.097    22.349     6.730
    19   6 C        2.687     0.339    21.234     7.541
    20   8 O        1.660    -0.390    20.658     6.136
    21   8 O        0.856    -0.470    23.134     6.449
    22   1 H        0.925     0.039     2.468     2.457
    23   1 H        0.925     0.036     2.504     2.475
    24   1 H        0.925     0.037     2.493     2.469
    25   1 H        0.924     0.036     2.508     2.476
    26   1 H        0.924     0.037     2.489     2.467
    27   1 H        0.926     0.028     2.615     2.529
    28   1 H        0.926     0.026     2.643     2.542
    29   1 H        0.926     0.023     2.686     2.563
    30   1 H        0.860     0.208     1.064     1.616
    31   1 H        0.924     0.050     2.317     2.380
    32   1 H        0.924     0.063     2.163     2.300
    33   1 H        0.924     0.049     2.327     2.385
    34   1 H        0.923     0.024     2.680     2.560
    35   1 H        0.924     0.043     2.411     2.428
    36   1 H        0.924     0.033     2.543     2.494
    37   1 H        0.925     0.038     2.481     2.463
    38   1 H        0.925     0.040     2.454     2.450
    39   1 H        0.925     0.050     2.318     2.381
    40   1 H        0.925     0.085     1.929     2.172
    41   1 H        0.924     0.069     2.100     2.266
    42   1 H        0.804     0.323     0.655     1.271

 Mol. C6AA /au·bohr⁶  :      17896.657641
 Mol. C8AA /au·bohr⁸  :     415361.193581
 Mol. α(0) /au        :        204.758332


Wiberg/Mayer (AO) data.
largest (>0.10) Wiberg bond orders for each atom

 ---------------------------------------------------------------------------
     #   Z sym  total        # sym  WBO       # sym  WBO       # sym  WBO
 ---------------------------------------------------------------------------
     1   6 C    3.993 --     2 C    0.991    23 H    0.989    22 H    0.987
                            24 H    0.985
     2   6 C    3.996 --     3 C    1.020     1 C    0.991    26 H    0.975
                            25 H    0.968
     3   6 C    3.829 --     8 C    1.335     4 C    1.175     2 C    1.020
     4   6 C    3.897 --     5 C    1.517     3 C    1.175    27 H    0.970
     5   6 C    3.978 --     4 C    1.517     6 C    1.326    28 H    0.971
     6   6 C    3.789 --     5 C    1.326     7 C    1.198    29 H    0.970
                            11 C    0.100
     7   6 C    3.969 --    11 C    1.297     8 C    1.255     6 C    1.198
     8   6 C    3.953 --     3 C    1.335     7 C    1.255     9 N    1.145
     9   7 N    3.576 --    10 C    1.259     8 C    1.145    30 H    0.904
    10   6 C    3.847 --     9 N    1.259    11 C    1.224    15 C    1.002
    11   6 C    3.897 --     7 C    1.297    10 C    1.224    12 C    1.034
                             6 C    0.100
    12   6 C    3.995 --    11 C    1.034    13 C    0.990    31 H    0.962
                            32 H    0.944
    13   6 C    3.955 --    12 C    0.990    14 O    0.987    33 H    0.970
                            34 H    0.967
    14   8 O    2.076 --    13 C    0.987    15 C    0.958
    15   6 C    3.948 --    10 C    1.002    14 O    0.958    16 C    0.955
                            18 C    0.945
    16   6 C    3.987 --    17 C    1.019    36 H    0.974    35 H    0.973
                            15 C    0.955
    17   6 C    3.993 --    16 C    1.019    38 H    0.986    37 H    0.985
                            39 H    0.985
    18   6 C    3.983 --    19 C    0.986    40 H    0.964    41 H    0.949
                            15 C    0.945
    19   6 C    3.808 --    21 O    1.644    20 O    1.106    18 C    0.986
    20   8 O    2.156 --    19 C    1.106    42 H    0.870    21 O    0.147
    21   8 O    1.950 --    19 C    1.644    20 O    0.147
    22   1 H    0.998 --     1 C    0.987
    23   1 H    0.999 --     1 C    0.989
    24   1 H    0.997 --     1 C    0.985
    25   1 H    0.998 --     2 C    0.968
    26   1 H    0.997 --     2 C    0.975
    27   1 H    0.999 --     4 C    0.970
    28   1 H    0.999 --     5 C    0.971
    29   1 H    0.998 --     6 C    0.970
    30   1 H    0.956 --     9 N    0.904
    31   1 H    0.993 --    12 C    0.962
    32   1 H    0.985 --    12 C    0.944
    33   1 H    0.997 --    13 C    0.970
    34   1 H    0.999 --    13 C    0.967
    35   1 H    0.998 --    16 C    0.973
    36   1 H    0.999 --    16 C    0.974
    37   1 H    0.998 --    17 C    0.985
    38   1 H    0.998 --    17 C    0.986
    39   1 H    0.997 --    17 C    0.985
    40   1 H    0.990 --    18 C    0.964
    41   1 H    0.990 --    18 C    0.949
    42   1 H    0.895 --    20 O    0.870
 ---------------------------------------------------------------------------

Topologies differ in total number of bonds
Writing topology from bond orders to xtbtopo.mol

molecular dipole:
                 x           y           z       tot (Debye)
 q only:       -0.194       0.241      -0.055
   full:       -0.225       0.024      -0.084       0.614
molecular quadrupole (traceless):
                xx          xy          yy          xz          yz          zz
 q only:       -1.955      -2.131       4.651       1.375      -0.776      -2.696
  q+dip:       -3.103      -2.395       8.792       2.174      -0.119      -5.689
   full:       -3.954      -2.289       7.703       3.600      -1.172      -3.749


           -------------------------------------------------
          | TOTAL ENERGY              -62.166904838419 Eh   |
          | GRADIENT NORM               0.149634062653 Eh/α |
          | HOMO-LUMO GAP               0.156493851360 eV   |
           -------------------------------------------------

------------------------------------------------------------------------
 * finished run on 2025/05/15 at 16:17:52.484     
------------------------------------------------------------------------
 total:
 * wall-time:     0 d,  0 h,  0 min,  0.172 sec
 *  cpu-time:     0 d,  0 h,  0 min,  0.081 sec
 * ratio c/w:     0.468 speedup
 SCF:
 * wall-time:     0 d,  0 h,  0 min,  0.117 sec
 *  cpu-time:     0 d,  0 h,  0 min,  0.070 sec
 * ratio c/w:     0.596 speedup


