42
 energy: -62.295951204822 gnorm: 0.000244113042 xtb: 6.7.1 (edcfbbe)
C            3.43721560864213       -2.26401594334372        0.11402926906998
C            3.14587383942260       -1.52920921585800       -1.19606979006850
C            2.86934761163136       -0.07301176945100       -0.94943098415752
C            3.82162945187469        0.90550486246237       -1.15783105104800
C            3.56882107359211        2.25591481923014       -0.89997160425877
C            2.35143726268748        2.67855541956034       -0.41971119509414
C            1.36294053081386        1.72072862960577       -0.19259268384620
C            1.63503392483008        0.35476678897025       -0.45908076910464
N            0.51269435155397       -0.36592590454726       -0.16543801489027
C           -0.45002278586310        0.49117235725216        0.29186535615547
C            0.02200777786778        1.77430017928591        0.28467907684404
C           -0.83068867787574        2.91842923486088        0.72021438293453
C           -2.28686501610789        2.45164630777057        0.62254057574018
O           -2.50467967408270        1.21657116211267        1.27356774187461
C           -1.82877134970821        0.08663540250355        0.71695559478404
C           -2.60897530899996       -0.47830807148741       -0.49242818068885
C           -4.03347595335647       -0.88795533320625       -0.13889308336377
C           -1.79084375885834       -0.91922766249039        1.89334870652506
C           -1.51252844258454       -2.35122373905548        1.53647329659098
O           -2.23704487599040       -3.18783389307342        2.28142558383816
O           -0.72930160787690       -2.75419336062052        0.71244735436979
H            2.58437458444791       -2.20410474177898        0.78618891359638
H            4.29598154220344       -1.81823522085446        0.61118948980223
H            3.65237116112664       -3.31299717529008       -0.07790979065038
H            2.28466099257929       -1.99168089812179       -1.68503328390725
H            4.00538313538788       -1.62764205889988       -1.86207938847045
H            4.79297643732837        0.61928095228502       -1.53594874505640
H            4.35240032257582        2.97649895501465       -1.08503396002900
H            2.16001638820998        3.72257069288867       -0.22108190408316
H            0.40972942023967       -1.36920518902260       -0.18717580889334
H           -0.67554692912995        3.79473822051357        0.08871849508454
H           -0.59747841153172        3.19516012188373        1.75295812464451
H           -2.96091854173589        3.14970945943416        1.12428713962381
H           -2.57517403245565        2.38407568164410       -0.43563213456007
H           -2.05711208181313       -1.32546288625612       -0.90088936931525
H           -2.63550143419608        0.29626766613509       -1.26206510327111
H           -4.59358438168841       -1.10966189103875       -1.04433771066394
H           -4.04400454482944       -1.77275169021312        0.49281276734332
H           -4.53029569086819       -0.07794547992744        0.38969952906363
H           -2.74375520573850       -0.86419770079465        2.41920495366510
H           -1.01099551529511       -0.59535808075165        2.58842299045485
H           -2.02743119642987       -4.11227900733102        2.06990521341578
