----- Optimization -----
      -----------------------------------------------------------      
     |                   =====================                   |     
     |                           x T B                           |     
     |                   =====================                   |     
     |                         S. Grimme                         |     
     |          Mulliken Center for Theoretical Chemistry        |     
     |                    University of Bonn                     |     
      -----------------------------------------------------------      

   * xtb version 6.7.1 (edcfbbe) compiled by 'conda@3ef47c1a292c' on 2024-11-25

   xtb is free software: you can redistribute it and/or modify it under
   the terms of the GNU Lesser General Public License as published by
   the Free Software Foundation, either version 3 of the License, or
   (at your option) any later version.
   
   xtb is distributed in the hope that it will be useful,
   but WITHOUT ANY WARRANTY; without even the implied warranty of
   MERCHANTABILITY or FITNESS FOR A PARTICULAR PURPOSE.  See the
   GNU Lesser General Public License for more details.
   
   Cite this work as:
   * C. Bannwarth, E. Caldeweyher, S. Ehlert, A. Hansen, P. Pracht,
     J. Seibert, S. Spicher, S. Grimme, WIREs Comput. Mol. Sci., 2020, 11,
     e01493. DOI: 10.1002/wcms.1493
   
   for GFN2-xTB:
   * C. Bannwarth, S. Ehlert and S. Grimme., J. Chem. Theory Comput., 2019,
     15, 1652-1671. DOI: 10.1021/acs.jctc.8b01176
   for GFN1-xTB:
   * S. Grimme, C. Bannwarth, P. Shushkov, J. Chem. Theory Comput., 2017,
     13, 1989-2009. DOI: 10.1021/acs.jctc.7b00118
   for GFN0-xTB:
   * P. Pracht, E. Caldeweyher, S. Ehlert, S. Grimme, ChemRxiv, 2019, preprint.
     DOI: 10.26434/chemrxiv.8326202.v1
   for GFN-FF:
   * S. Spicher and S. Grimme, Angew. Chem. Int. Ed., 2020, 59, 15665-15673.
     DOI: 10.1002/anie.202004239
   
   for ALPB and GBSA implicit solvation:
   * S. Ehlert, M. Stahn, S. Spicher, S. Grimme, J. Chem. Theory Comput.,
     2021, 17, 4250-4261. DOI: 10.1021/acs.jctc.1c00471
   
   for ddCOSMO and CPCM-X implicit solvation:
   * M. Stahn, S. Ehlert, S. Grimme, J. Phys. Chem. A,
     2023, XX, XXXX-XXXX. DOI: 10.1021/acs.jpca.3c04382
   
   for DFT-D4:
   * E. Caldeweyher, C. Bannwarth and S. Grimme, J. Chem. Phys., 2017,
     147, 034112. DOI: 10.1063/1.4993215
   * E. Caldeweyher, S. Ehlert, A. Hansen, H. Neugebauer, S. Spicher,
     C. Bannwarth and S. Grimme, J. Chem. Phys., 2019, 150, 154122.
     DOI: 10.1063/1.5090222
   * E. Caldeweyher, J.-M. Mewes, S. Ehlert and S. Grimme, Phys. Chem. Chem. Phys.
     2020, 22, 8499-8512. DOI: 10.1039/D0CP00502A
   
   for sTDA-xTB:
   * S. Grimme and C. Bannwarth, J. Chem. Phys., 2016, 145, 054103.
     DOI: 10.1063/1.4959605
   
   in the mass-spec context:
   * V. Asgeirsson, C. Bauer and S. Grimme, Chem. Sci., 2017, 8, 4879.
     DOI: 10.1039/c7sc00601b
   * J. Koopman and S. Grimme, ACS Omega 2019, 4, 12, 15120-15133.
     DOI: 10.1021/acsomega.9b02011
   
   for metadynamics refer to:
   * S. Grimme, J. Chem. Theory Comput., 2019, 155, 2847-2862
     DOI: 10.1021/acs.jctc.9b00143
   
   for SPH calculations refer to:
   * S. Spicher and S. Grimme, J. Chem. Theory Comput., 2021, 17, 1701-1714
     DOI: 10.1021/acs.jctc.0c01306
   
   for ONIOM refer to:
   * C. Plett, A. Katbashev, S. Ehlert, S. Grimme, M. Bursch,
     Phys. Chem. Chem. Phys., 2023, 25, 17860-17868. DOI: 10.1039/D3CP02178E
   
   for DIPRO refer to:
   * J. Kohn, N. Gildemeister, S. Grimme, D. Fazzi, A. Hansen,
     J. Chem. Phys., 2023, just accepted.
   
   for PTB refer to:
   * S. Grimme, M. Mueller, A. Hansen, J. Chem. Phys., 2023, 158, 124111.
     DOI: 10.1063/5.0137838
   
   with help from (in alphabetical order)
   P. Atkinson, C. Bannwarth, F. Bohle, G. Brandenburg, E. Caldeweyher
   M. Checinski, S. Dohm, S. Ehlert, S. Ehrlich, I. Gerasimov, C. Hölzer
   A. Katbashev, J. Kohn, J. Koopman, C. Lavigne, S. Lehtola, F. März, M. Müller,
   F. Musil, H. Neugebauer, J. Pisarek, C. Plett, P. Pracht, F. Pultar,
   J. Seibert, P. Shushkov, S. Spicher, M. Stahn, M. Steiner, T. Strunk,
   J. Stückrath, T. Rose, and J. Unsleber
   
 * started run on 2025/05/15 at 16:15:22.013     
   ID    Z sym.   atoms
    1    8 O      1, 6, 10, 12
    2    6 C      2-5, 7-9, 11, 13, 14, 16-19, 21-26
    3    7 N      15, 20
    4    1 H      27-42

           -------------------------------------------------
          |                Calculation Setup                |
           -------------------------------------------------

          program call               : xtb /rds/general/user/hgt20/home/callum/QDESCP/Camptothecin_rdkit_conf_3/Camptothecin_rdkit_conf_3.xyz --opt normal --acc 1 --gfn 2 --chrg 0 --uhf 0 -P 1
          hostname                   : login-c
          coordinate file            : /rds/general/user/hgt20/home/callum/QDESCP/Camptothecin_rdkit_conf_3/Camptothecin_rdkit_conf_3.xyz
          omp threads                :                     1


           -------------------------------------------------
          |                 G F N 2 - x T B                 |
           -------------------------------------------------

        Reference                      10.1021/acs.jctc.8b01176
      * Hamiltonian:
        H0-scaling (s, p, d)           1.850000    2.230000    2.230000
        zeta-weighting                 0.500000
      * Dispersion:
        s8                             2.700000
        a1                             0.520000
        a2                             5.000000
        s9                             5.000000
      * Repulsion:
        kExp                           1.500000    1.000000
        rExp                           1.000000
      * Coulomb:
        alpha                          2.000000
        third order                    shell-resolved
        anisotropic                    true
        a3                             3.000000
        a5                             4.000000
        cn-shift                       1.200000
        cn-exp                         4.000000
        max-rad                        5.000000


          ...................................................
          :                      SETUP                      :
          :.................................................:
          :  # basis functions                 120          :
          :  # atomic orbitals                 120          :
          :  # shells                           68          :
          :  # electrons                       130          :
          :  max. iterations                   250          :
          :  Hamiltonian                  GFN2-xTB          :
          :  restarted?                      false          :
          :  GBSA solvation                  false          :
          :  PC potential                    false          :
          :  electronic temp.          300.0000000     K    :
          :  accuracy                    1.0000000          :
          :  -> integral cutoff          0.2500000E+02      :
          :  -> integral neglect         0.1000000E-07      :
          :  -> SCF convergence          0.1000000E-05 Eh   :
          :  -> wf. convergence          0.1000000E-03 e    :
          :  Broyden damping             0.4000000          :
          :  net charge                          0          :
          :  unpaired electrons                  0          :
          ...................................................

 iter      E             dE          RMSdq      gap      omega  full diag
   1    -73.9983386 -0.739983E+02  0.446E+00    2.47       0.0  T
   2    -74.1132536 -0.114915E+00  0.258E+00    2.26       1.0  T
   3    -74.1142926 -0.103900E-02  0.133E+00    2.28       1.0  T
   4    -74.1259864 -0.116938E-01  0.393E-01    2.20       1.0  T
   5    -74.1306530 -0.466658E-02  0.107E-01    2.19       1.0  T
   6    -74.1308476 -0.194622E-03  0.541E-02    2.19       1.0  T
   7    -74.1309047 -0.570330E-04  0.223E-02    2.19       1.0  T
   8    -74.1309050 -0.298926E-06  0.110E-02    2.19       1.4  T
   9    -74.1309085 -0.349074E-05  0.343E-03    2.20       4.5  T
  10    -74.1309085 -0.800276E-07  0.160E-03    2.19       9.6  T
  11    -74.1309086 -0.303469E-07  0.786E-04    2.19      19.6  T
  12    -74.1309086 -0.801079E-08  0.361E-04    2.19      42.7  T

   *** convergence criteria satisfied after 12 iterations ***

         #    Occupation            Energy/Eh            Energy/eV
      -------------------------------------------------------------
         1        2.0000           -0.7502685             -20.4158
       ...           ...                  ...                  ...
        59        2.0000           -0.4343150             -11.8183
        60        2.0000           -0.4304338             -11.7127
        61        2.0000           -0.4108113             -11.1787
        62        2.0000           -0.4065646             -11.0632
        63        2.0000           -0.4041880             -10.9985
        64        2.0000           -0.3912327             -10.6460
        65        2.0000           -0.3892890             -10.5931 (HOMO)
        66                         -0.3086298              -8.3982 (LUMO)
        67                         -0.2747023              -7.4750
        68                         -0.2563014              -6.9743
        69                         -0.2497878              -6.7971
        70                         -0.2287958              -6.2259
       ...                                ...                  ...
       120                          0.7155630              19.4715
      -------------------------------------------------------------
                  HL-Gap            0.0806593 Eh            2.1948 eV
             Fermi-level           -0.3489594 Eh           -9.4957 eV

 SCC (total)                   0 d,  0 h,  0 min,  0.109 sec
 SCC setup                      ...        0 min,  0.000 sec (  0.368%)
 Dispersion                     ...        0 min,  0.000 sec (  0.448%)
 classical contributions        ...        0 min,  0.000 sec (  0.136%)
 integral evaluation            ...        0 min,  0.008 sec (  7.783%)
 iterations                     ...        0 min,  0.074 sec ( 68.208%)
 molecular gradient             ...        0 min,  0.025 sec ( 22.870%)
 printout                       ...        0 min,  0.000 sec (  0.181%)

         :::::::::::::::::::::::::::::::::::::::::::::::::::::
         ::                     SUMMARY                     ::
         :::::::::::::::::::::::::::::::::::::::::::::::::::::
         :: total energy             -73.152818403454 Eh    ::
         :: gradient norm              0.122369382130 Eh/a0 ::
         :: HOMO-LUMO gap              2.194849916894 eV    ::
         ::.................................................::
         :: SCC energy               -74.130945195773 Eh    ::
         :: -> isotropic ES            0.113479119808 Eh    ::
         :: -> anisotropic ES          0.003451987392 Eh    ::
         :: -> anisotropic XC          0.024555951950 Eh    ::
         :: -> dispersion             -0.050183990741 Eh    ::
         :: repulsion energy           0.978126792319 Eh    ::
         :: add. restraining           0.000000000000 Eh    ::
         :: total charge              -0.000000000000 e     ::
         :::::::::::::::::::::::::::::::::::::::::::::::::::::

      ----------------------------------------------------------- 
     |                   =====================                   |
     |                        A N C O P T                        |
     |                   =====================                   |
     |               Approximate Normal Coordinate               |
     |                Rational Function Optimizer                |
      ----------------------------------------------------------- 
      ----------------------------------------------------------- 
     |                   =====================                   |
     |                        A N C O P T                        |
     |                   =====================                   |
     |               Approximate Normal Coordinate               |
     |                Rational Function Optimizer                |
      ----------------------------------------------------------- 

          ...................................................
          :                      SETUP                      :
          :.................................................:
          :   optimization level            normal          :
          :   max. optcycles                   200          :
          :   ANC micro-cycles                  20          :
          :   degrees of freedom               120          :
          :.................................................:
          :   RF solver                   davidson          :
          :   write xtbopt.log                true          :
          :   linear?                        false          :
          :   energy convergence         0.5000000E-05 Eh   :
          :   grad. convergence          0.1000000E-02 Eh/α :
          :   maxmium RF displ.          1.0000000          :
          :   Hlow (freq-cutoff)         0.1000000E-01      :
          :   Hmax (freq-cutoff)         5.0000000          :
          :   S6 in model hess.         20.0000000          :
          ...................................................

generating ANC from exact Hessian ...
Using Lindh-Hessian (1995)
 Shifting diagonal of input Hessian by    9.5367138734160257E-003
 Lowest  eigenvalues of input Hessian
    0.000000    0.000000    0.000000    0.000000    0.000000    0.000000
    0.010000    0.010369    0.011259    0.011795    0.012384    0.013511
    0.014684    0.015611    0.018753    0.019516    0.020596    0.022045
 Highest eigenvalues
    1.998494    2.054462    2.153160    2.173396    2.193512    2.342863


........................................................................
.............................. CYCLE    1 ..............................
........................................................................

 iter      E             dE          RMSdq      gap      omega  full diag
   1    -74.1309086 -0.741309E+02  0.161E-04    2.19       0.0  T
   2    -74.1309086 -0.147594E-09  0.116E-04    2.19     133.5  T
   3    -74.1309086 -0.256506E-09  0.701E-05    2.19     220.2  T
     SCC iter.                  ...        0 min,  0.008 sec
     gradient                   ...        0 min,  0.025 sec
 * total energy  :   -73.1528184 Eh     change       -0.2585466E-08 Eh
   gradient norm :     0.1223709 Eh/α   predicted     0.0000000E+00 (-100.00%)
   displ. norm   :     0.2555917 α      lambda       -0.1445392E-01
   maximum displ.:     0.1375462 α      in ANC's #17, #25, #39, ...

........................................................................
.............................. CYCLE    2 ..............................
........................................................................

 iter      E             dE          RMSdq      gap      omega  full diag
   1    -74.1638480 -0.741638E+02  0.169E-01    2.20       0.0  T
   2    -74.1639836 -0.135624E-03  0.106E-01    2.21       1.0  T
   3    -74.1639808  0.275845E-05  0.661E-02    2.20       1.0  T
   4    -74.1640472 -0.663995E-04  0.183E-02    2.21       1.0  T
   5    -74.1640599 -0.126692E-04  0.424E-03    2.21       3.6  T
   6    -74.1640600 -0.123765E-06  0.225E-03    2.21       6.9  T
   7    -74.1640601 -0.744683E-07  0.116E-03    2.21      13.3  T
   8    -74.1640601 -0.170354E-07  0.471E-04    2.21      32.8  T
   9    -74.1640601 -0.197689E-08  0.165E-04    2.21      93.5  T
     SCC iter.                  ...        0 min,  0.021 sec
     gradient                   ...        0 min,  0.025 sec
 * total energy  :   -73.1628403 Eh     change       -0.1002191E-01 Eh
   gradient norm :     0.0535727 Eh/α   predicted    -0.7702388E-02 ( -23.14%)
   displ. norm   :     0.2531862 α      lambda       -0.4923599E-02
   maximum displ.:     0.1417571 α      in ANC's #17, #8, #22, ...

........................................................................
.............................. CYCLE    3 ..............................
........................................................................

 iter      E             dE          RMSdq      gap      omega  full diag
   1    -74.1827468 -0.741827E+02  0.128E-01    2.20       0.0  T
   2    -74.1828338 -0.870470E-04  0.789E-02    2.21       1.0  T
   3    -74.1828565 -0.226847E-04  0.534E-02    2.21       1.0  T
   4    -74.1828990 -0.425332E-04  0.133E-02    2.21       1.2  T
   5    -74.1829046 -0.559606E-05  0.315E-03    2.21       4.9  T
   6    -74.1829048 -0.170396E-06  0.150E-03    2.21      10.3  T
   7    -74.1829048 -0.261477E-07  0.806E-04    2.21      19.1  T
   8    -74.1829048 -0.763639E-08  0.292E-04    2.21      52.8  T
     SCC iter.                  ...        0 min,  0.018 sec
     gradient                   ...        0 min,  0.025 sec
 * total energy  :   -73.1657294 Eh     change       -0.2889043E-02 Eh
   gradient norm :     0.0190709 Eh/α   predicted    -0.2621193E-02 (  -9.27%)
   displ. norm   :     0.1758705 α      lambda       -0.8807247E-03
   maximum displ.:     0.0765314 α      in ANC's #8, #17, #5, ...

........................................................................
.............................. CYCLE    4 ..............................
........................................................................

 iter      E             dE          RMSdq      gap      omega  full diag
   1    -74.1834213 -0.741834E+02  0.658E-02    2.21       0.0  T
   2    -74.1834358 -0.144836E-04  0.392E-02    2.21       1.0  T
   3    -74.1834295  0.631172E-05  0.275E-02    2.21       1.0  T
   4    -74.1834461 -0.166679E-04  0.500E-03    2.21       3.1  T
   5    -74.1834468 -0.669081E-06  0.125E-03    2.21      12.3  T
   6    -74.1834468 -0.220247E-07  0.712E-04    2.21      21.7  T
   7    -74.1834468 -0.484569E-08  0.355E-04    2.21      43.5  T
     SCC iter.                  ...        0 min,  0.016 sec
     gradient                   ...        0 min,  0.025 sec
 * total energy  :   -73.1663628 Eh     change       -0.6334606E-03 Eh
   gradient norm :     0.0104572 Eh/α   predicted    -0.4539965E-03 ( -28.33%)
   displ. norm   :     0.2602611 α      lambda       -0.6996040E-03
   maximum displ.:     0.1093979 α      in ANC's #8, #5, #4, ...

........................................................................
.............................. CYCLE    5 ..............................
........................................................................

 iter      E             dE          RMSdq      gap      omega  full diag
   1    -74.1810529 -0.741811E+02  0.825E-02    2.21       0.0  T
   2    -74.1810642 -0.112771E-04  0.493E-02    2.21       1.0  T
   3    -74.1810441  0.201143E-04  0.321E-02    2.21       1.0  T
   4    -74.1810728 -0.287842E-04  0.443E-03    2.21       3.5  T
   5    -74.1810734 -0.534061E-06  0.159E-03    2.21       9.7  T
   6    -74.1810734 -0.368325E-07  0.914E-04    2.21      16.9  T
   7    -74.1810734 -0.779205E-08  0.353E-04    2.21      43.7  T
     SCC iter.                  ...        0 min,  0.063 sec
     gradient                   ...        0 min,  0.025 sec
 * total energy  :   -73.1668104 Eh     change       -0.4475297E-03 Eh
   gradient norm :     0.0090690 Eh/α   predicted    -0.3735181E-03 ( -16.54%)
   displ. norm   :     0.2209379 α      lambda       -0.3516514E-03
   maximum displ.:     0.0885341 α      in ANC's #5, #8, #4, ...

........................................................................
.............................. CYCLE    6 ..............................
........................................................................

 iter      E             dE          RMSdq      gap      omega  full diag
   1    -74.1798859 -0.741799E+02  0.717E-02    2.21       0.0  T
   2    -74.1798876 -0.170603E-05  0.428E-02    2.21       1.0  T
   3    -74.1798770  0.105896E-04  0.182E-02    2.21       1.0  T
   4    -74.1798892 -0.121969E-04  0.208E-03    2.21       7.4  T
   5    -74.1798893 -0.915910E-07  0.106E-03    2.21      14.5  T
   6    -74.1798893 -0.104822E-07  0.501E-04    2.21      30.8  T
   7    -74.1798893 -0.523541E-08  0.175E-04    2.21      88.4  T
     SCC iter.                  ...        0 min,  0.067 sec
     gradient                   ...        0 min,  0.025 sec
 * total energy  :   -73.1670656 Eh     change       -0.2552379E-03 Eh
   gradient norm :     0.0100209 Eh/α   predicted    -0.1844105E-03 ( -27.75%)
   displ. norm   :     0.2896922 α      lambda       -0.3847212E-03
   maximum displ.:     0.1188435 α      in ANC's #4, #7, #5, ...

........................................................................
.............................. CYCLE    7 ..............................
........................................................................

 iter      E             dE          RMSdq      gap      omega  full diag
   1    -74.1795140 -0.741795E+02  0.873E-02    2.22       0.0  T
   2    -74.1795172 -0.321773E-05  0.520E-02    2.22       1.0  T
   3    -74.1795145  0.267947E-05  0.983E-03    2.21       1.6  T
   4    -74.1795178 -0.334117E-05  0.292E-03    2.21       5.3  T
   5    -74.1795180 -0.217319E-06  0.129E-03    2.21      11.9  T
   6    -74.1795181 -0.760068E-08  0.581E-04    2.21      26.6  T
   7    -74.1795181 -0.672797E-08  0.213E-04    2.21      72.3  T
     SCC iter.                  ...        0 min,  0.062 sec
     gradient                   ...        0 min,  0.025 sec
 * total energy  :   -73.1673382 Eh     change       -0.2726053E-03 Eh
   gradient norm :     0.0095081 Eh/α   predicted    -0.2085129E-03 ( -23.51%)
   displ. norm   :     0.2172045 α      lambda       -0.2777525E-03
   maximum displ.:     0.0995902 α      in ANC's #4, #7, #5, ...

........................................................................
.............................. CYCLE    8 ..............................
........................................................................

 iter      E             dE          RMSdq      gap      omega  full diag
   1    -74.1810428 -0.741810E+02  0.704E-02    2.22       0.0  T
   2    -74.1810458 -0.295647E-05  0.418E-02    2.21       1.0  T
   3    -74.1810414  0.444282E-05  0.114E-02    2.22       1.3  T
   4    -74.1810463 -0.492335E-05  0.326E-03    2.21       4.7  T
   5    -74.1810467 -0.380974E-06  0.105E-03    2.21      14.7  T
   6    -74.1810467 -0.293907E-08  0.495E-04    2.21      31.1  T
   7    -74.1810467 -0.347717E-08  0.189E-04    2.21      81.7  T
     SCC iter.                  ...        0 min,  0.061 sec
     gradient                   ...        0 min,  0.025 sec
 * total energy  :   -73.1675260 Eh     change       -0.1878282E-03 Eh
   gradient norm :     0.0060527 Eh/α   predicted    -0.1454454E-03 ( -22.56%)
   displ. norm   :     0.1454617 α      lambda       -0.1211796E-03
   maximum displ.:     0.0763383 α      in ANC's #4, #7, #3, ...

........................................................................
.............................. CYCLE    9 ..............................
........................................................................

 iter      E             dE          RMSdq      gap      omega  full diag
   1    -74.1823260 -0.741823E+02  0.460E-02    2.21       0.0  T
   2    -74.1823269 -0.939403E-06  0.272E-02    2.21       1.0  T
   3    -74.1823259  0.103693E-05  0.604E-03    2.21       2.6  T
   4    -74.1823272 -0.130345E-05  0.139E-03    2.21      11.1  T
   5    -74.1823272 -0.304978E-07  0.694E-04    2.21      22.2  T
   6    -74.1823272 -0.457167E-08  0.345E-04    2.21      44.8  T
     SCC iter.                  ...        0 min,  0.014 sec
     gradient                   ...        0 min,  0.058 sec
 * total energy  :   -73.1676089 Eh     change       -0.8290679E-04 Eh
   gradient norm :     0.0032855 Eh/α   predicted    -0.6187289E-04 ( -25.37%)
   displ. norm   :     0.1176507 α      lambda       -0.6187024E-04
   maximum displ.:     0.0655931 α      in ANC's #4, #1, #3, ...

........................................................................
.............................. CYCLE   10 ..............................
........................................................................

 iter      E             dE          RMSdq      gap      omega  full diag
   1    -74.1830245 -0.741830E+02  0.359E-02    2.21       0.0  T
   2    -74.1830251 -0.635627E-06  0.212E-02    2.21       1.0  T
   3    -74.1830245  0.645701E-06  0.426E-03    2.21       3.6  T
   4    -74.1830252 -0.789757E-06  0.119E-03    2.21      13.0  T
   5    -74.1830253 -0.449944E-07  0.577E-04    2.21      26.8  T
   6    -74.1830253 -0.267771E-08  0.280E-04    2.21      55.2  T
     SCC iter.                  ...        0 min,  0.014 sec
     gradient                   ...        0 min,  0.073 sec
 * total energy  :   -73.1676533 Eh     change       -0.4436340E-04 Eh
   gradient norm :     0.0022326 Eh/α   predicted    -0.3136535E-04 ( -29.30%)
   displ. norm   :     0.1194778 α      lambda       -0.4658498E-04
   maximum displ.:     0.0650763 α      in ANC's #4, #1, #3, ...

........................................................................
.............................. CYCLE   11 ..............................
........................................................................

 iter      E             dE          RMSdq      gap      omega  full diag
   1    -74.1830909 -0.741831E+02  0.324E-02    2.20       0.0  T
   2    -74.1830915 -0.565872E-06  0.191E-02    2.20       1.0  T
   3    -74.1830904  0.115804E-05  0.526E-03    2.20       2.9  T
   4    -74.1830917 -0.129765E-05  0.151E-03    2.20      10.2  T
   5    -74.1830917 -0.796879E-07  0.517E-04    2.20      29.8  T
   6    -74.1830917 -0.631474E-09  0.231E-04    2.20      66.7  T
     SCC iter.                  ...        0 min,  0.014 sec
     gradient                   ...        0 min,  0.025 sec
 * total energy  :   -73.1676879 Eh     change       -0.3459991E-04 Eh
   gradient norm :     0.0027526 Eh/α   predicted    -0.2362927E-04 ( -31.71%)
   displ. norm   :     0.1180883 α      lambda       -0.4098877E-04
   maximum displ.:     0.0648896 α      in ANC's #1, #4, #3, ...

........................................................................
.............................. CYCLE   12 ..............................
........................................................................

 iter      E             dE          RMSdq      gap      omega  full diag
   1    -74.1832518 -0.741833E+02  0.286E-02    2.20       0.0  T
   2    -74.1832521 -0.300937E-06  0.169E-02    2.20       1.0  T
   3    -74.1832513  0.752903E-06  0.441E-03    2.20       3.5  T
   4    -74.1832522 -0.858544E-06  0.104E-03    2.20      14.9  T
   5    -74.1832522 -0.313484E-07  0.417E-04    2.20      37.0  T
   6    -74.1832522 -0.192912E-09  0.183E-04    2.20      84.4  T
     SCC iter.                  ...        0 min,  0.047 sec
     gradient                   ...        0 min,  0.025 sec
 * total energy  :   -73.1677173 Eh     change       -0.2936682E-04 Eh
   gradient norm :     0.0028271 Eh/α   predicted    -0.2078092E-04 ( -29.24%)
   displ. norm   :     0.1174971 α      lambda       -0.3250509E-04
   maximum displ.:     0.0694417 α      in ANC's #1, #4, #3, ...

........................................................................
.............................. CYCLE   13 ..............................
........................................................................

 iter      E             dE          RMSdq      gap      omega  full diag
   1    -74.1824831 -0.741825E+02  0.286E-02    2.20       0.0  T
   2    -74.1824833 -0.213756E-06  0.169E-02    2.20       1.0  T
   3    -74.1824822  0.116659E-05  0.566E-03    2.20       2.7  T
   4    -74.1824835 -0.133856E-05  0.782E-04    2.20      19.7  T
   5    -74.1824835 -0.801339E-08  0.435E-04    2.20      35.5  T
   6    -74.1824835 -0.144645E-08  0.189E-04    2.20      81.8  T
     SCC iter.                  ...        0 min,  0.014 sec
     gradient                   ...        0 min,  0.059 sec
 * total energy  :   -73.1677385 Eh     change       -0.2123339E-04 Eh
   gradient norm :     0.0024671 Eh/α   predicted    -0.1647758E-04 ( -22.40%)
   displ. norm   :     0.0812859 α      lambda       -0.2093492E-04
   maximum displ.:     0.0504227 α      in ANC's #1, #5, #4, ...

........................................................................
.............................. CYCLE   14 ..............................
........................................................................

 iter      E             dE          RMSdq      gap      omega  full diag
   1    -74.1827694 -0.741828E+02  0.185E-02    2.21       0.0  T
   2    -74.1827696 -0.196922E-06  0.109E-02    2.21       1.4  T
   3    -74.1827694  0.173447E-06  0.226E-03    2.21       6.8  T
   4    -74.1827696 -0.214087E-06  0.602E-04    2.21      25.6  T
   5    -74.1827696 -0.115691E-07  0.262E-04    2.21      58.9  T
     SCC iter.                  ...        0 min,  0.012 sec
     gradient                   ...        0 min,  0.070 sec
 * total energy  :   -73.1677524 Eh     change       -0.1387192E-04 Eh
   gradient norm :     0.0012978 Eh/α   predicted    -0.1053711E-04 ( -24.04%)
   displ. norm   :     0.0844207 α      lambda       -0.1274383E-04
   maximum displ.:     0.0616203 α      in ANC's #1, #4, #6, ...

........................................................................
.............................. CYCLE   15 ..............................
........................................................................

 iter      E             dE          RMSdq      gap      omega  full diag
   1    -74.1826215 -0.741826E+02  0.211E-02    2.21       0.0  T
   2    -74.1826218 -0.332955E-06  0.124E-02    2.21       1.2  T
   3    -74.1826217  0.139877E-06  0.242E-03    2.21       6.4  T
   4    -74.1826219 -0.181503E-06  0.702E-04    2.21      22.0  T
   5    -74.1826219 -0.196294E-07  0.307E-04    2.21      50.2  T
     SCC iter.                  ...        0 min,  0.012 sec
     gradient                   ...        0 min,  0.025 sec
 * total energy  :   -73.1677645 Eh     change       -0.1211783E-04 Eh
   gradient norm :     0.0013205 Eh/α   predicted    -0.6394600E-05 ( -47.23%)
   displ. norm   :     0.0868175 α      lambda        0.5187627E-05
   maximum displ.:     0.0635353 α      in ANC's #1, #4, #6, ...

........................................................................
.............................. CYCLE   16 ..............................
........................................................................

 iter      E             dE          RMSdq      gap      omega  full diag
   1    -74.1823772 -0.741824E+02  0.217E-02    2.21       0.0  T
   2    -74.1823775 -0.348456E-06  0.128E-02    2.21       1.2  T
   3    -74.1823774  0.149145E-06  0.249E-03    2.21       6.2  T
   4    -74.1823776 -0.193135E-06  0.724E-04    2.21      21.3  T
   5    -74.1823776 -0.208160E-07  0.316E-04    2.21      48.8  T
     SCC iter.                  ...        0 min,  0.012 sec
     gradient                   ...        0 min,  0.025 sec
 * total energy  :   -73.1677628 Eh     change        0.1712001E-05 Eh
   gradient norm :     0.0031112 Eh/α   predicted     0.2598042E-05 (  51.75%)
   displ. norm   :     0.0217251 α      lambda       -0.1031255E-04
   maximum displ.:     0.0111610 α      in ANC's #3, #4, #5, ...

........................................................................
.............................. CYCLE   17 ..............................
........................................................................

 iter      E             dE          RMSdq      gap      omega  full diag
   1    -74.1826970 -0.741827E+02  0.685E-03    2.21       0.0  T
   2    -74.1826970 -0.693101E-07  0.401E-03    2.21       3.8  T
   3    -74.1826970  0.277268E-07  0.124E-03    2.21      12.4  T
   4    -74.1826970 -0.362193E-07  0.327E-04    2.21      47.1  T
   5    -74.1826970 -0.437990E-08  0.120E-04    2.21     128.4  T
     SCC iter.                  ...        0 min,  0.061 sec
     gradient                   ...        0 min,  0.025 sec
 * total energy  :   -73.1677709 Eh     change       -0.8114131E-05 Eh
   gradient norm :     0.0019442 Eh/α   predicted    -0.5162456E-05 ( -36.38%)
   displ. norm   :     0.0568187 α      lambda       -0.1445363E-04
   maximum displ.:     0.0301802 α      in ANC's #3, #5, #9, ...

........................................................................
.............................. CYCLE   18 ..............................
........................................................................

 iter      E             dE          RMSdq      gap      omega  full diag
   1    -74.1831225 -0.741831E+02  0.177E-02    2.20       0.0  T
   2    -74.1831231 -0.655009E-06  0.105E-02    2.20       1.5  T
   3    -74.1831229  0.204071E-06  0.358E-03    2.20       4.3  T
   4    -74.1831232 -0.276331E-06  0.955E-04    2.20      16.2  T
   5    -74.1831232 -0.446976E-07  0.298E-04    2.20      51.7  T
     SCC iter.                  ...        0 min,  0.012 sec
     gradient                   ...        0 min,  0.065 sec
 * total energy  :   -73.1677800 Eh     change       -0.9086022E-05 Eh
   gradient norm :     0.0013718 Eh/α   predicted    -0.7238258E-05 ( -20.34%)
   displ. norm   :     0.0399934 α      lambda       -0.4878550E-05
   maximum displ.:     0.0316393 α      in ANC's #1, #6, #7, ...

........................................................................
.............................. CYCLE   19 ..............................
........................................................................

 iter      E             dE          RMSdq      gap      omega  full diag
   1    -74.1830607 -0.741831E+02  0.827E-03    2.20       0.0  T
   2    -74.1830608 -0.347005E-07  0.490E-03    2.20       3.1  T
   3    -74.1830607  0.280693E-07  0.924E-04    2.20      16.7  T
   4    -74.1830608 -0.352804E-07  0.289E-04    2.20      53.4  T
     SCC iter.                  ...        0 min,  0.009 sec
     gradient                   ...        0 min,  0.025 sec
 * total energy  :   -73.1677857 Eh     change       -0.5753581E-05 Eh
   gradient norm :     0.0010836 Eh/α   predicted    -0.2445436E-05 ( -57.50%)
   displ. norm   :     0.0545373 α      lambda       -0.6242261E-05
   maximum displ.:     0.0423037 α      in ANC's #1, #3, #6, ...

........................................................................
.............................. CYCLE   20 ..............................
........................................................................

 iter      E             dE          RMSdq      gap      omega  full diag
   1    -74.1828716 -0.741829E+02  0.114E-02    2.21       0.0  T
   2    -74.1828717 -0.687500E-07  0.671E-03    2.21       2.3  T
   3    -74.1828716  0.670369E-07  0.141E-03    2.21      10.9  T
   4    -74.1828717 -0.803609E-07  0.375E-04    2.21      41.1  T
   5    -74.1828717 -0.506044E-08  0.162E-04    2.21      95.0  T
     SCC iter.                  ...        0 min,  0.012 sec
     gradient                   ...        0 min,  0.025 sec
 * total energy  :   -73.1677927 Eh     change       -0.6976608E-05 Eh
   gradient norm :     0.0005024 Eh/α   predicted    -0.3127245E-05 ( -55.18%)
   displ. norm   :     0.0629083 α      lambda       -0.4758354E-05
   maximum displ.:     0.0473899 α      in ANC's #1, #3, #2, ...
 * RMSD in coord.:     0.2871193 α      energy gain  -0.1497430E-01 Eh

generating ANC from exact Hessian ...
Using Lindh-Hessian (1995)
 Shifting diagonal of input Hessian by    9.5137209152805543E-003
 Lowest  eigenvalues of input Hessian
    0.000000    0.000000    0.000000    0.000000    0.000000    0.000000
    0.010000    0.010385    0.011375    0.012017    0.012510    0.013673
    0.015206    0.015945    0.019646    0.020183    0.020850    0.022656
 Highest eigenvalues
    2.029361    2.076491    2.144145    2.234066    2.335373    2.398411


........................................................................
.............................. CYCLE   21 ..............................
........................................................................

 iter      E             dE          RMSdq      gap      omega  full diag
   1    -74.1826499 -0.741826E+02  0.131E-02    2.21       0.0  T
   2    -74.1826499 -0.234279E-07  0.770E-03    2.21       2.0  T
   3    -74.1826499  0.850487E-08  0.615E-04    2.21      25.1  T
   4    -74.1826499 -0.154542E-07  0.274E-04    2.21      56.2  T
     SCC iter.                  ...        0 min,  0.009 sec
     gradient                   ...        0 min,  0.025 sec
 * total energy  :   -73.1677987 Eh     change       -0.6004602E-05 Eh
   gradient norm :     0.0006761 Eh/α   predicted     0.0000000E+00 (-100.00%)
   displ. norm   :     0.0171830 α      lambda       -0.1882477E-05
   maximum displ.:     0.0152776 α      in ANC's #1, #6, #7, ...

........................................................................
.............................. CYCLE   22 ..............................
........................................................................

 iter      E             dE          RMSdq      gap      omega  full diag
   1    -74.1828859 -0.741829E+02  0.362E-03    2.21       0.0  T
   2    -74.1828859 -0.144789E-07  0.214E-03    2.21       7.2  T
   3    -74.1828859  0.897535E-08  0.562E-04    2.21      27.4  T
   4    -74.1828859 -0.110862E-07  0.170E-04    2.21      90.8  T
     SCC iter.                  ...        0 min,  0.047 sec
     gradient                   ...        0 min,  0.025 sec
 * total energy  :   -73.1678012 Eh     change       -0.2453238E-05 Eh
   gradient norm :     0.0002378 Eh/α   predicted    -0.1016611E-05 ( -58.56%)
   displ. norm   :     0.0270189 α      lambda       -0.2213367E-05
   maximum displ.:     0.0227911 α      in ANC's #1, #6, #3, ...

   *** GEOMETRY OPTIMIZATION CONVERGED AFTER 22 ITERATIONS ***

------------------------------------------------------------------------
 total energy gain   :        -0.0149828 Eh       -9.4018 kcal/mol
 total RMSD          :         0.2882676 a0        0.1525 Å
 total power (kW/mol):        -1.7880557 (step)  -20.8648 (real)
------------------------------------------------------------------------

 ANCopt (total)                0 d,  0 h,  0 min,  1.885 sec
 optimizer setup                ...        0 min,  0.000 sec (  0.004%)
 model hessian                  ...        0 min,  0.128 sec (  6.764%)
 ANC generation                 ...        0 min,  0.003 sec (  0.158%)
 coordinate transformation      ...        0 min,  0.000 sec (  0.008%)
 single point calculation       ...        0 min,  1.747 sec ( 92.651%)
 optimization log               ...        0 min,  0.003 sec (  0.180%)
 hessian update                 ...        0 min,  0.000 sec (  0.014%)
 rational function              ...        0 min,  0.002 sec (  0.080%)

================
 final structure:
================
42
 xtb: 6.7.1 (edcfbbe)
O           -1.30596317376116       -3.33859456735991       -1.40730720614455
C           -1.24200813646721       -2.25135406426018       -0.85720428028937
C           -2.36553564529593       -1.45328273031680       -0.41677180196763
C           -2.20475558368728       -0.24510220213119        0.20250342977509
C           -3.44809728350574        0.50283909415037        0.60295139868832
O           -3.19153580170386        1.39875234839671        1.65220907695433
C           -4.05217029011277        1.26600050278478       -0.60825767354395
C           -3.08634183782521        2.32395115692920       -1.12534013210270
C           -4.50771528153709       -0.50597917517146        1.07521485327434
O           -4.63843271581824       -1.65363193214330        0.43267102918014
C           -3.73636110108647       -2.01709095167275       -0.60804927091473
O           -5.20944112723767       -0.23101652879577        2.01633380878836
C           -0.92115018971315        0.28126659350259        0.45024814359247
C            0.14654138404291       -0.45310188285099        0.02471666814557
N           -0.02159907668077       -1.65447937949541       -0.60003884277877
C            1.23757699558638       -2.28187994016102       -0.96470346365928
C            1.57174719559163       -0.18702395188049        0.09567569729490
C            2.24937785543363       -1.28668138629538       -0.50406330949471
C            3.60981336687828       -1.26789973675961       -0.56964871954369
N            2.15151285044092        0.86540860717065        0.60071691059942
C            3.49853448724373        0.90546072779764        0.54534277342863
C            4.27829178007712       -0.14123749302399       -0.03338448145502
C            5.68002455689845       -0.01302667764216       -0.05360639581812
C            6.28537971062970        1.09540842576935        0.47196800915571
C            5.51774000424843        2.12347525087790        1.04199897401465
C            4.15423549846100        2.03364734704097        1.07999028339090
H           -3.93467812301415        1.32124580567863        2.27424232656074
H           -4.97161560362516        1.74506281632064       -0.26407111396944
H           -4.30607897357658        0.56538300226929       -1.40432001335135
H           -2.20250419776414        1.86194665979364       -1.55905810495695
H           -2.77557238208165        2.96643106788874       -0.30615332484495
H           -3.57178219334860        2.93126633297138       -1.88494874321930
H           -3.68881520749057       -3.11042434094485       -0.60199047304221
H           -4.16422032170120       -1.70698495806155       -1.57132430304319
H           -0.79587200569267        1.22167724630087        0.95446785492225
H            1.26599100059361       -2.46407160306581       -2.04418714303750
H            1.32851035151612       -3.25318237927006       -0.46635455903664
H            4.17873067895580       -2.07283013332644       -1.01362062986221
H            6.26669194179015       -0.80711879582533       -0.49329008801919
H            7.36111758150607        1.18682783438399        0.45142250795004
H            6.01663632112356        2.98919374717182        1.45135291671051
H            3.54399269170847        2.81045024325476        1.51246741166806

 Bond Distances (Angstroems)
 ---------------------------
O1-C2=1.2202         C2-O1=1.2202         C2-C3=1.4468         C2-N15=1.3827        C3-C2=1.4468         C3-C4=1.3671         
C3-C11=1.4945        C4-C3=1.3671         C4-C5=1.5052         C4-C13=1.4093        C5-C4=1.5052         C5-O6=1.4034         
C5-C7=1.5538         C5-C9=1.5374         O6-C5=1.4034         O6-H27=0.9722        C7-C5=1.5538         C7-C8=1.5230         
C7-H28=1.0924        C7-H29=1.0904        C8-C7=1.5230         C8-H30=1.0875        C8-H31=1.0865        C8-H32=1.0870        
C9-C5=1.5374         C9-O10=1.3218        C9-O12=1.2057        O10-C9=1.3218        O10-C11=1.4244       C11-C3=1.4945        
C11-O10=1.4244       C11-H33=1.0944       C11-H34=1.0987       O12-C9=1.2057        C13-C4=1.4093        C13-C14=1.3639       
C13-H35=1.0744       C14-C13=1.3639       C14-N15=1.3645       C14-C17=1.4516       N15-C2=1.3827        N15-C14=1.3645       
N15-C16=1.4533       C16-N15=1.4533       C16-C18=1.4921       C16-H36=1.0951       C16-H37=1.0955       C17-C14=1.4516       
C17-C18=1.4241       C17-N20=1.3034       C18-C16=1.4921       C18-C17=1.4241       C18-C19=1.3621       C19-C18=1.3621       
C19-C22=1.4156       C19-H38=1.0811       N20-C17=1.3034       N20-C21=1.3488       C21-N20=1.3488       C21-C22=1.4278       
C21-C26=1.4102       C22-C19=1.4156       C22-C21=1.4278       C22-C23=1.4077       C23-C22=1.4077       C23-C24=1.3680       
C23-H39=1.0808       C24-C23=1.3680       C24-C25=1.4040       C24-H40=1.0798       C25-C24=1.4040       C25-C26=1.3670       
C25-H41=1.0798       C26-C21=1.4102       C26-C25=1.3670       C26-H42=1.0784       H27-O6=0.9722        H28-C7=1.0924        
H29-C7=1.0904        H30-C8=1.0875        H31-C8=1.0865        H32-C8=1.0870        H33-C11=1.0944       H34-C11=1.0987       
H35-C13=1.0744       H36-C16=1.0951       H37-C16=1.0955       H38-C19=1.0811       H39-C23=1.0808       H40-C24=1.0798       
H41-C25=1.0798       H42-C26=1.0784       
 C  H  Rav=1.0868 sigma=0.0072  Rmin=1.0744  Rmax=1.0987    15
 C  C  Rav=1.4366 sigma=0.0600  Rmin=1.3621  Rmax=1.5538    20
 N  C  Rav=1.3705 sigma=0.0490  Rmin=1.3034  Rmax=1.4533     5
 O  H  Rav=0.9722 sigma=0.0000  Rmin=0.9722  Rmax=0.9722     1
 O  C  Rav=1.3151 sigma=0.0903  Rmin=1.2057  Rmax=1.4244     5

 selected bond angles (degree)
 --------------------
C3-C2-O1=126.02                N15-C2-O1=120.98               N15-C2-C3=113.00               C4-C3-C2=122.28                
C11-C3-C2=117.73               C11-C3-C4=119.95               C5-C4-C3=117.55                C13-C4-C3=121.12               
C13-C4-C5=121.33               O6-C5-C4=111.42                C7-C5-C4=110.97                C7-C5-O6=109.90                
C9-C5-C4=108.96                C9-C5-O6=108.38                C9-C5-C7=107.09                H27-O6-C5=106.72               
C8-C7-C5=111.06                H28-C7-C5=107.28               H28-C7-C8=109.64               H29-C7-C5=110.12               
H29-C7-C8=110.25               H29-C7-H28=108.41              H30-C8-C7=110.84               H31-C8-C7=109.64               
H31-C8-H30=108.63              H32-C8-C7=110.01               H32-C8-H30=108.76              H32-C8-H31=108.92              
O10-C9-C5=119.25               O12-C9-C5=119.42               O12-C9-O10=121.33              C11-O10-C9=120.94              

 selected dihedral angles (degree)
 ---------------------------------
C4-C3-C2-O1=179.52            C4-C3-C2-N15=359.21           C11-C3-C2-O1=  2.01           C11-C3-C2-N15=181.70          
C5-C4-C3-C2=179.34            C5-C4-C3-C11=356.80           C13-C4-C3-C2=359.62           C13-C4-C3-C11=177.08          
O6-C5-C4-C3=156.25            O6-C5-C4-C13=335.97           C7-C5-C4-C3=279.05            C7-C5-C4-C13= 98.77           
C9-C5-C4-C3= 36.72            C9-C5-C4-C13=216.44           H27-O6-C5-C4=222.54           H27-O6-C5-C7= 99.12           
H27-O6-C5-C9=342.41           C8-C7-C5-C4=297.14            C8-C7-C5-O6= 60.82            C8-C7-C5-C9=178.33            
H28-C7-C5-C4=177.35           H28-C7-C5-O6=301.02           H28-C7-C5-C9= 58.54           H29-C7-C5-C4= 59.56           
H29-C7-C5-O6=183.24           H29-C7-C5-C9=300.75           H30-C8-C7-C5= 66.95           H30-C8-C7-H28=185.33          
H30-C8-C7-H29=304.61          H31-C8-C7-C5=307.03           H31-C8-C7-H28= 65.41          H31-C8-C7-H29=184.69          
H32-C8-C7-C5=187.27           H32-C8-C7-H28=305.65          H32-C8-C7-H29= 64.92          O10-C9-C5-C4=320.63           
O10-C9-C5-O6=199.23           O10-C9-C5-C7= 80.72           O12-C9-C5-C4=141.21           O12-C9-C5-O6= 19.81           
O12-C9-C5-C7=261.31           C11-O10-C9-C5=  5.70          C11-O10-C9-O12=185.10         
           -------------------------------------------------
          |                Final Singlepoint                |
           -------------------------------------------------

          ...................................................
          :                      SETUP                      :
          :.................................................:
          :  # basis functions                 120          :
          :  # atomic orbitals                 120          :
          :  # shells                           68          :
          :  # electrons                       130          :
          :  max. iterations                   250          :
          :  Hamiltonian                  GFN2-xTB          :
          :  restarted?                      false          :
          :  GBSA solvation                  false          :
          :  PC potential                    false          :
          :  electronic temp.          300.0000000     K    :
          :  accuracy                    1.0000000          :
          :  -> integral cutoff          0.2500000E+02      :
          :  -> integral neglect         0.1000000E-07      :
          :  -> SCF convergence          0.1000000E-05 Eh   :
          :  -> wf. convergence          0.1000000E-03 e    :
          :  Broyden damping             0.4000000          :
          :  net charge                          0          :
          :  unpaired electrons                  0          :
          ...................................................

 iter      E             dE          RMSdq      gap      omega  full diag
   1    -74.1828859 -0.741829E+02  0.745E-05    2.21       0.0  T
   2    -74.1828859 -0.198810E-10  0.526E-05    2.21     293.1  T
   3    -74.1828859 -0.494396E-10  0.322E-05    2.21     479.5  T

   *** convergence criteria satisfied after 3 iterations ***

         #    Occupation            Energy/Eh            Energy/eV
      -------------------------------------------------------------
         1        2.0000           -0.7597162             -20.6729
       ...           ...                  ...                  ...
        59        2.0000           -0.4298399             -11.6965
        60        2.0000           -0.4278871             -11.6434
        61        2.0000           -0.4124398             -11.2231
        62        2.0000           -0.4103566             -11.1664
        63        2.0000           -0.4031317             -10.9698
        64        2.0000           -0.3891292             -10.5887
        65        2.0000           -0.3873154             -10.5394 (HOMO)
        66                         -0.3062367              -8.3331 (LUMO)
        67                         -0.2752488              -7.4899
        68                         -0.2511873              -6.8352
        69                         -0.2429027              -6.6097
        70                         -0.2278270              -6.1995
       ...                                ...                  ...
       120                          0.7003503              19.0575
      -------------------------------------------------------------
                  HL-Gap            0.0810787 Eh            2.2063 eV
             Fermi-level           -0.3467761 Eh           -9.4363 eV

 SCC (total)                   0 d,  0 h,  0 min,  0.070 sec
 SCC setup                      ...        0 min,  0.000 sec (  0.491%)
 Dispersion                     ...        0 min,  0.000 sec (  0.441%)
 classical contributions        ...        0 min,  0.000 sec (  0.203%)
 integral evaluation            ...        0 min,  0.008 sec ( 11.794%)
 iterations                     ...        0 min,  0.007 sec ( 10.036%)
 molecular gradient             ...        0 min,  0.054 sec ( 76.808%)
 printout                       ...        0 min,  0.000 sec (  0.217%)

         :::::::::::::::::::::::::::::::::::::::::::::::::::::
         ::                     SUMMARY                     ::
         :::::::::::::::::::::::::::::::::::::::::::::::::::::
         :: total energy             -73.167801162169 Eh    ::
         :: gradient norm              0.000238497844 Eh/a0 ::
         :: HOMO-LUMO gap              2.206262771986 eV    ::
         ::.................................................::
         :: SCC energy               -74.182896436556 Eh    ::
         :: -> isotropic ES            0.112127901774 Eh    ::
         :: -> anisotropic ES          0.002789481522 Eh    ::
         :: -> anisotropic XC          0.022730920285 Eh    ::
         :: -> dispersion             -0.050856382624 Eh    ::
         :: repulsion energy           1.015095274387 Eh    ::
         :: add. restraining           0.000000000000 Eh    ::
         :: total charge               0.000000000000 e     ::
         :::::::::::::::::::::::::::::::::::::::::::::::::::::

           -------------------------------------------------
          |                Property Printout                |
           -------------------------------------------------

    * Orbital Energies and Occupations

         #    Occupation            Energy/Eh            Energy/eV
      -------------------------------------------------------------
         1        2.0000           -0.7597162             -20.6729
       ...           ...                  ...                  ...
        53        2.0000           -0.4633566             -12.6086
        54        2.0000           -0.4605918             -12.5333
        55        2.0000           -0.4521930             -12.3048
        56        2.0000           -0.4509214             -12.2702
        57        2.0000           -0.4478148             -12.1857
        58        2.0000           -0.4439525             -12.0806
        59        2.0000           -0.4298399             -11.6965
        60        2.0000           -0.4278871             -11.6434
        61        2.0000           -0.4124398             -11.2231
        62        2.0000           -0.4103566             -11.1664
        63        2.0000           -0.4031317             -10.9698
        64        2.0000           -0.3891292             -10.5887
        65        2.0000           -0.3873154             -10.5394 (HOMO)
        66                         -0.3062367              -8.3331 (LUMO)
        67                         -0.2752488              -7.4899
        68                         -0.2511873              -6.8352
        69                         -0.2429027              -6.6097
        70                         -0.2278270              -6.1995
        71                         -0.2123324              -5.7779
        72                         -0.1705068              -4.6397
        73                         -0.1228158              -3.3420
        74                         -0.0814499              -2.2164
        75                         -0.0263538              -0.7171
        76                          0.0051247               0.1394
       ...                                ...                  ...
       120                          0.7003503              19.0575
      -------------------------------------------------------------
                  HL-Gap            0.0810787 Eh            2.2063 eV
             Fermi-level           -0.3467761 Eh           -9.4363 eV

     #   Z          covCN         q      C6AA      α(0)
     1   8 O        0.858    -0.462    22.954     6.424
     2   6 C        2.769     0.253    22.752     7.812
     3   6 C        2.970    -0.060    29.483     8.907
     4   6 C        2.984     0.012    27.733     8.638
     5   6 C        3.786     0.117    18.690     6.158
     6   8 O        1.656    -0.439    21.618     6.277
     7   6 C        3.804    -0.056    21.578     6.613
     8   6 C        3.752    -0.105    22.569     6.775
     9   6 C        2.714     0.340    21.220     7.540
    10   8 O        1.704    -0.235    17.897     5.712
    11   6 C        3.701     0.073    19.506     6.316
    12   8 O        0.857    -0.391    21.510     6.218
    13   6 C        2.912    -0.051    29.275     8.872
    14   6 C        2.981     0.057    26.720     8.479
    15   7 N        2.806    -0.048    22.157     6.991
    16   6 C        3.794     0.001    20.568     6.458
    17   6 C        3.027     0.090    25.968     8.359
    18   6 C        3.031    -0.011    28.264     8.720
    19   6 C        2.918    -0.026    28.658     8.779
    20   7 N        1.840    -0.229    26.846     7.679
    21   6 C        2.985     0.091    25.962     8.358
    22   6 C        2.989     0.004    27.921     8.668
    23   6 C        2.916    -0.034    28.837     8.806
    24   6 C        2.916    -0.026    28.643     8.776
    25   6 C        2.916    -0.025    28.616     8.772
    26   6 C        2.920    -0.035    28.875     8.812
    27   1 H        0.804     0.316     0.676     1.291
    28   1 H        0.924     0.049     2.327     2.386
    29   1 H        0.924     0.031     2.572     2.508
    30   1 H        0.925     0.037     2.491     2.468
    31   1 H        0.925     0.063     2.163     2.300
    32   1 H        0.925     0.044     2.392     2.419
    33   1 H        0.924     0.099     1.791     2.093
    34   1 H        0.923     0.064     2.151     2.294
    35   1 H        0.926     0.093     1.849     2.127
    36   1 H        0.924     0.083     1.953     2.185
    37   1 H        0.924     0.084     1.941     2.179
    38   1 H        0.926     0.043     2.413     2.429
    39   1 H        0.926     0.040     2.451     2.448
    40   1 H        0.926     0.042     2.419     2.432
    41   1 H        0.926     0.044     2.392     2.419
    42   1 H        0.926     0.061     2.192     2.315

 Mol. C6AA /au·bohr⁶  :      23097.908241
 Mol. C8AA /au·bohr⁸  :     563275.978715
 Mol. α(0) /au        :        236.210245


Wiberg/Mayer (AO) data.
largest (>0.10) Wiberg bond orders for each atom

 ---------------------------------------------------------------------------
     #   Z sym  total        # sym  WBO       # sym  WBO       # sym  WBO
 ---------------------------------------------------------------------------
     1   8 O    1.967 --     2 C    1.619    15 N    0.155
     2   6 C    3.957 --     1 O    1.619    15 N    1.114     3 C    1.113
     3   6 C    3.966 --     4 C    1.536     2 C    1.113    11 C    1.013
     4   6 C    3.987 --     3 C    1.536    13 C    1.271     5 C    0.979
     5   6 C    3.964 --     6 O    1.005     4 C    0.979     7 C    0.927
                             9 C    0.915
     6   8 O    1.966 --     5 C    1.005    27 H    0.863
     7   6 C    3.991 --     8 C    1.018    29 H    0.975    28 H    0.975
                             5 C    0.927
     8   6 C    3.993 --     7 C    1.018    30 H    0.987    32 H    0.984
                            31 H    0.984
     9   6 C    3.913 --    12 O    1.734    10 O    1.167     5 C    0.915
    10   8 O    2.351 --     9 C    1.167    11 C    0.937    12 O    0.163
    11   6 C    3.920 --     3 C    1.013    33 H    0.954    34 H    0.944
                            10 O    0.937
    12   8 O    2.056 --     9 C    1.734    10 O    0.163
    13   6 C    3.971 --    14 C    1.492     4 C    1.271    35 H    0.959
    14   6 C    3.962 --    13 C    1.492    15 N    1.192    17 C    1.075
    15   7 N    3.613 --    14 C    1.192     2 C    1.114    16 C    0.979
                             1 O    0.155
    16   6 C    3.965 --    18 C    1.020    15 N    0.979    36 H    0.944
                            37 H    0.943
    17   6 C    3.982 --    20 N    1.496    18 C    1.210    14 C    1.075
    18   6 C    3.986 --    19 C    1.548    17 C    1.210    16 C    1.020
    19   6 C    3.988 --    18 C    1.548    22 C    1.272    38 H    0.965
    20   7 N    3.067 --    17 C    1.496    21 C    1.289
    21   6 C    3.978 --    20 N    1.289    26 C    1.271    22 C    1.228
    22   6 C    3.983 --    23 C    1.288    19 C    1.272    21 C    1.228
    23   6 C    3.988 --    24 C    1.549    22 C    1.288    39 H    0.967
                            26 C    0.116
    24   6 C    3.980 --    23 C    1.549    25 C    1.322    40 H    0.970
    25   6 C    3.988 --    26 C    1.556    24 C    1.322    41 H    0.970
    26   6 C    3.979 --    25 C    1.556    21 C    1.271    42 H    0.966
                            23 C    0.116
    27   1 H    0.900 --     6 O    0.863
    28   1 H    0.997 --     7 C    0.975
    29   1 H    0.999 --     7 C    0.975
    30   1 H    0.999 --     8 C    0.987
    31   1 H    0.996 --     8 C    0.984
    32   1 H    0.998 --     8 C    0.984
    33   1 H    0.989 --    11 C    0.954
    34   1 H    0.994 --    11 C    0.944
    35   1 H    0.991 --    13 C    0.959
    36   1 H    0.991 --    16 C    0.944
    37   1 H    0.990 --    16 C    0.943
    38   1 H    0.997 --    19 C    0.965
    39   1 H    0.998 --    23 C    0.967
    40   1 H    0.998 --    24 C    0.970
    41   1 H    0.998 --    25 C    0.970
    42   1 H    0.996 --    26 C    0.966
 ---------------------------------------------------------------------------

Topologies differ in total number of bonds
Writing topology from bond orders to xtbtopo.mol

molecular dipole:
                 x           y           z       tot (Debye)
 q only:        2.380       0.952      -0.764
   full:        2.391       0.573      -1.026       6.771
molecular quadrupole (traceless):
                xx          xy          yy          xz          yz          zz
 q only:        4.869      -8.658      -2.912      12.842      -1.836      -1.957
  q+dip:       11.111     -11.507      -5.057      13.868      -1.525      -6.054
   full:        8.504     -11.534      -6.703      14.306      -5.093      -1.801

           -------------------------------------------------
          |                Geometry Summary                 |
           -------------------------------------------------

      molecular mass/u    :      348.3527961
   center of mass at/Å    :       -0.1378485      -0.2436727       0.1042017
  moments of inertia/u·Å² :        0.1062733E+04   0.4618063E+04   0.5326310E+04
rotational constants/cm⁻¹ :        0.1586252E-01   0.3650369E-02   0.3164974E-02

 * 40 selected distances

     #   Z          #   Z                                           value/Å
     1   8 O        2   6 C                                       1.2201621
     3   6 C        4   6 C                                       1.3671330
     5   6 C        6   8 O                                       1.4033625
     7   6 C        8   6 C                                       1.5229770 (max)
     9   6 C       10   8 O                                       1.3217628
    10   8 O       11   6 C                                       1.4244068
     9   6 C       12   8 O                                       1.2057068
     4   6 C       13   6 C                                       1.4092852
    13   6 C       14   6 C                                       1.3639427
     2   6 C       15   7 N                                       1.3826757
    14   6 C       15   7 N                                       1.3645142
    15   7 N       16   6 C                                       1.4533191
    16   6 C       18   6 C                                       1.4920961
    17   6 C       18   6 C                                       1.4241197
    18   6 C       19   6 C                                       1.3621451
    17   6 C       20   7 N                                       1.3033838
    20   7 N       21   6 C                                       1.3487543
    19   6 C       22   6 C                                       1.4155603
    21   6 C       22   6 C                                       1.4277690
    22   6 C       23   6 C                                       1.4077294
    23   6 C       24   6 C                                       1.3679591
    24   6 C       25   6 C                                       1.4039686
    21   6 C       26   6 C                                       1.4101763
    25   6 C       26   6 C                                       1.3669884
     6   8 O       27   1 H                                       0.9722105 (min)
     7   6 C       28   1 H                                       1.0924033
     7   6 C       29   1 H                                       1.0904357
     8   6 C       30   1 H                                       1.0875333
     8   6 C       31   1 H                                       1.0864738
     8   6 C       32   1 H                                       1.0869634
    11   6 C       33   1 H                                       1.0943836
    11   6 C       34   1 H                                       1.0986939
    13   6 C       35   1 H                                       1.0743857
    16   6 C       36   1 H                                       1.0951194
    16   6 C       37   1 H                                       1.0954676
    19   6 C       38   1 H                                       1.0810602
    23   6 C       39   1 H                                       1.0807788
    24   6 C       40   1 H                                       1.0798110
    25   6 C       41   1 H                                       1.0797856
    26   6 C       42   1 H                                       1.0783579

 * 5 distinct bonds (by element types)

   Z      Z             #   av. dist./Å        max./Å        min./Å
   1 H    6 C          15     1.0867769     1.0986939     1.0743857
   6 C    6 C          14     1.4101321     1.5229770     1.3621451
   6 C    7 N           5     1.3705294     1.4533191     1.3033838
   1 H    8 O           1     0.9722105     0.9722105     0.9722105
   6 C    8 O           5     1.3150802     1.4244068     1.2057068


optimized geometry written to: xtbopt.xyz


           -------------------------------------------------
          | TOTAL ENERGY              -73.167801162169 Eh   |
          | GRADIENT NORM               0.000238497844 Eh/α |
          | HOMO-LUMO GAP               2.206262771986 eV   |
           -------------------------------------------------

------------------------------------------------------------------------
 * finished run on 2025/05/15 at 16:15:24.094     
------------------------------------------------------------------------
 total:
 * wall-time:     0 d,  0 h,  0 min,  2.081 sec
 *  cpu-time:     0 d,  0 h,  0 min,  1.190 sec
 * ratio c/w:     0.572 speedup
 SCF:
 * wall-time:     0 d,  0 h,  0 min,  0.109 sec
 *  cpu-time:     0 d,  0 h,  0 min,  0.064 sec
 * ratio c/w:     0.585 speedup
 ANC optimizer:
 * wall-time:     0 d,  0 h,  0 min,  1.957 sec
 *  cpu-time:     0 d,  0 h,  0 min,  1.113 sec
 * ratio c/w:     0.569 speedup



----- Single-point -----
      -----------------------------------------------------------      
     |                   =====================                   |     
     |                           x T B                           |     
     |                   =====================                   |     
     |                         S. Grimme                         |     
     |          Mulliken Center for Theoretical Chemistry        |     
     |                    University of Bonn                     |     
      -----------------------------------------------------------      

   * xtb version 6.7.1 (edcfbbe) compiled by 'conda@3ef47c1a292c' on 2024-11-25

   xtb is free software: you can redistribute it and/or modify it under
   the terms of the GNU Lesser General Public License as published by
   the Free Software Foundation, either version 3 of the License, or
   (at your option) any later version.
   
   xtb is distributed in the hope that it will be useful,
   but WITHOUT ANY WARRANTY; without even the implied warranty of
   MERCHANTABILITY or FITNESS FOR A PARTICULAR PURPOSE.  See the
   GNU Lesser General Public License for more details.
   
   Cite this work as:
   * C. Bannwarth, E. Caldeweyher, S. Ehlert, A. Hansen, P. Pracht,
     J. Seibert, S. Spicher, S. Grimme, WIREs Comput. Mol. Sci., 2020, 11,
     e01493. DOI: 10.1002/wcms.1493
   
   for GFN2-xTB:
   * C. Bannwarth, S. Ehlert and S. Grimme., J. Chem. Theory Comput., 2019,
     15, 1652-1671. DOI: 10.1021/acs.jctc.8b01176
   for GFN1-xTB:
   * S. Grimme, C. Bannwarth, P. Shushkov, J. Chem. Theory Comput., 2017,
     13, 1989-2009. DOI: 10.1021/acs.jctc.7b00118
   for GFN0-xTB:
   * P. Pracht, E. Caldeweyher, S. Ehlert, S. Grimme, ChemRxiv, 2019, preprint.
     DOI: 10.26434/chemrxiv.8326202.v1
   for GFN-FF:
   * S. Spicher and S. Grimme, Angew. Chem. Int. Ed., 2020, 59, 15665-15673.
     DOI: 10.1002/anie.202004239
   
   for ALPB and GBSA implicit solvation:
   * S. Ehlert, M. Stahn, S. Spicher, S. Grimme, J. Chem. Theory Comput.,
     2021, 17, 4250-4261. DOI: 10.1021/acs.jctc.1c00471
   
   for ddCOSMO and CPCM-X implicit solvation:
   * M. Stahn, S. Ehlert, S. Grimme, J. Phys. Chem. A,
     2023, XX, XXXX-XXXX. DOI: 10.1021/acs.jpca.3c04382
   
   for DFT-D4:
   * E. Caldeweyher, C. Bannwarth and S. Grimme, J. Chem. Phys., 2017,
     147, 034112. DOI: 10.1063/1.4993215
   * E. Caldeweyher, S. Ehlert, A. Hansen, H. Neugebauer, S. Spicher,
     C. Bannwarth and S. Grimme, J. Chem. Phys., 2019, 150, 154122.
     DOI: 10.1063/1.5090222
   * E. Caldeweyher, J.-M. Mewes, S. Ehlert and S. Grimme, Phys. Chem. Chem. Phys.
     2020, 22, 8499-8512. DOI: 10.1039/D0CP00502A
   
   for sTDA-xTB:
   * S. Grimme and C. Bannwarth, J. Chem. Phys., 2016, 145, 054103.
     DOI: 10.1063/1.4959605
   
   in the mass-spec context:
   * V. Asgeirsson, C. Bauer and S. Grimme, Chem. Sci., 2017, 8, 4879.
     DOI: 10.1039/c7sc00601b
   * J. Koopman and S. Grimme, ACS Omega 2019, 4, 12, 15120-15133.
     DOI: 10.1021/acsomega.9b02011
   
   for metadynamics refer to:
   * S. Grimme, J. Chem. Theory Comput., 2019, 155, 2847-2862
     DOI: 10.1021/acs.jctc.9b00143
   
   for SPH calculations refer to:
   * S. Spicher and S. Grimme, J. Chem. Theory Comput., 2021, 17, 1701-1714
     DOI: 10.1021/acs.jctc.0c01306
   
   for ONIOM refer to:
   * C. Plett, A. Katbashev, S. Ehlert, S. Grimme, M. Bursch,
     Phys. Chem. Chem. Phys., 2023, 25, 17860-17868. DOI: 10.1039/D3CP02178E
   
   for DIPRO refer to:
   * J. Kohn, N. Gildemeister, S. Grimme, D. Fazzi, A. Hansen,
     J. Chem. Phys., 2023, just accepted.
   
   for PTB refer to:
   * S. Grimme, M. Mueller, A. Hansen, J. Chem. Phys., 2023, 158, 124111.
     DOI: 10.1063/5.0137838
   
   with help from (in alphabetical order)
   P. Atkinson, C. Bannwarth, F. Bohle, G. Brandenburg, E. Caldeweyher
   M. Checinski, S. Dohm, S. Ehlert, S. Ehrlich, I. Gerasimov, C. Hölzer
   A. Katbashev, J. Kohn, J. Koopman, C. Lavigne, S. Lehtola, F. März, M. Müller,
   F. Musil, H. Neugebauer, J. Pisarek, C. Plett, P. Pracht, F. Pultar,
   J. Seibert, P. Shushkov, S. Spicher, M. Stahn, M. Steiner, T. Strunk,
   J. Stückrath, T. Rose, and J. Unsleber
   
 * started run on 2025/05/15 at 16:15:24.105     
   ID    Z sym.   atoms
    1    8 O      1, 6, 10, 12
    2    6 C      2-5, 7-9, 11, 13, 14, 16-19, 21-26
    3    7 N      15, 20
    4    1 H      27-42

           -------------------------------------------------
          |                Calculation Setup                |
           -------------------------------------------------

          program call               : xtb /rds/general/user/hgt20/home/callum/QDESCP/Camptothecin_rdkit_conf_3/Camptothecin_rdkit_conf_3.xyz --acc 1 --gfn 2 --chrg 0 --uhf 0 --etemp 300 --input /rds/general/user/hgt20/home/callum/QDESCP/Camptothecin_rdkit_conf_3/Camptothecin_rdkit_conf_3_xtb.inp -P 1
          hostname                   : login-c
          coordinate file            : /rds/general/user/hgt20/home/callum/QDESCP/Camptothecin_rdkit_conf_3/Camptothecin_rdkit_conf_3.xyz
          omp threads                :                     1


           -------------------------------------------------
          |                 G F N 2 - x T B                 |
           -------------------------------------------------

        Reference                      10.1021/acs.jctc.8b01176
      * Hamiltonian:
        H0-scaling (s, p, d)           1.850000    2.230000    2.230000
        zeta-weighting                 0.500000
      * Dispersion:
        s8                             2.700000
        a1                             0.520000
        a2                             5.000000
        s9                             5.000000
      * Repulsion:
        kExp                           1.500000    1.000000
        rExp                           1.000000
      * Coulomb:
        alpha                          2.000000
        third order                    shell-resolved
        anisotropic                    true
        a3                             3.000000
        a5                             4.000000
        cn-shift                       1.200000
        cn-exp                         4.000000
        max-rad                        5.000000

q/qsh data taken from xtbrestart
CAMM data taken from xtbrestart

          ...................................................
          :                      SETUP                      :
          :.................................................:
          :  # basis functions                 120          :
          :  # atomic orbitals                 120          :
          :  # shells                           68          :
          :  # electrons                       130          :
          :  max. iterations                   250          :
          :  Hamiltonian                  GFN2-xTB          :
          :  restarted?                       true          :
          :  GBSA solvation                  false          :
          :  PC potential                    false          :
          :  electronic temp.          300.0000000     K    :
          :  accuracy                    1.0000000          :
          :  -> integral cutoff          0.2500000E+02      :
          :  -> integral neglect         0.1000000E-07      :
          :  -> SCF convergence          0.1000000E-05 Eh   :
          :  -> wf. convergence          0.1000000E-03 e    :
          :  Broyden damping             0.4000000          :
          :  net charge                          0          :
          :  unpaired electrons                  0          :
          ...................................................

 iter      E             dE          RMSdq      gap      omega  full diag
   1    -74.1828859 -0.741829E+02  0.659E-06    2.21       0.0  T
   2    -74.1828859 -0.397904E-12  0.418E-06    2.21    3689.7  T
   3    -74.1828859 -0.142109E-12  0.280E-06    2.21    5519.2  T

   *** convergence criteria satisfied after 3 iterations ***

         #    Occupation            Energy/Eh            Energy/eV
      -------------------------------------------------------------
         1        2.0000           -0.7597162             -20.6729
       ...           ...                  ...                  ...
        59        2.0000           -0.4298398             -11.6965
        60        2.0000           -0.4278873             -11.6434
        61        2.0000           -0.4124397             -11.2231
        62        2.0000           -0.4103567             -11.1664
        63        2.0000           -0.4031317             -10.9698
        64        2.0000           -0.3891293             -10.5887
        65        2.0000           -0.3873156             -10.5394 (HOMO)
        66                         -0.3062369              -8.3331 (LUMO)
        67                         -0.2752489              -7.4899
        68                         -0.2511874              -6.8352
        69                         -0.2429027              -6.6097
        70                         -0.2278271              -6.1995
       ...                                ...                  ...
       120                          0.7003502              19.0575
      -------------------------------------------------------------
                  HL-Gap            0.0810788 Eh            2.2063 eV
             Fermi-level           -0.3467762 Eh           -9.4363 eV

 SCC (total)                   0 d,  0 h,  0 min,  0.091 sec
 SCC setup                      ...        0 min,  0.000 sec (  0.448%)
 Dispersion                     ...        0 min,  0.000 sec (  0.516%)
 classical contributions        ...        0 min,  0.000 sec (  0.161%)
 integral evaluation            ...        0 min,  0.009 sec (  9.337%)
 iterations                     ...        0 min,  0.009 sec (  9.424%)
 molecular gradient             ...        0 min,  0.073 sec ( 79.836%)
 printout                       ...        0 min,  0.000 sec (  0.269%)

         :::::::::::::::::::::::::::::::::::::::::::::::::::::
         ::                     SUMMARY                     ::
         :::::::::::::::::::::::::::::::::::::::::::::::::::::
         :: total energy             -73.167801162179 Eh    ::
         :: gradient norm              0.000238453080 Eh/a0 ::
         :: HOMO-LUMO gap              2.206265778143 eV    ::
         ::.................................................::
         :: SCC energy               -74.182896436566 Eh    ::
         :: -> isotropic ES            0.112127817253 Eh    ::
         :: -> anisotropic ES          0.002789528099 Eh    ::
         :: -> anisotropic XC          0.022730913177 Eh    ::
         :: -> dispersion             -0.050856382628 Eh    ::
         :: repulsion energy           1.015095274387 Eh    ::
         :: add. restraining           0.000000000000 Eh    ::
         :: total charge              -0.000000000000 e     ::
         :::::::::::::::::::::::::::::::::::::::::::::::::::::

           -------------------------------------------------
          |                Property Printout                |
           -------------------------------------------------

    * Orbital Energies and Occupations

         #    Occupation            Energy/Eh            Energy/eV
      -------------------------------------------------------------
         1        2.0000           -0.7597162             -20.6729
       ...           ...                  ...                  ...
        53        2.0000           -0.4633566             -12.6086
        54        2.0000           -0.4605918             -12.5333
        55        2.0000           -0.4521931             -12.3048
        56        2.0000           -0.4509214             -12.2702
        57        2.0000           -0.4478149             -12.1857
        58        2.0000           -0.4439525             -12.0806
        59        2.0000           -0.4298398             -11.6965
        60        2.0000           -0.4278873             -11.6434
        61        2.0000           -0.4124397             -11.2231
        62        2.0000           -0.4103567             -11.1664
        63        2.0000           -0.4031317             -10.9698
        64        2.0000           -0.3891293             -10.5887
        65        2.0000           -0.3873156             -10.5394 (HOMO)
        66                         -0.3062369              -8.3331 (LUMO)
        67                         -0.2752489              -7.4899
        68                         -0.2511874              -6.8352
        69                         -0.2429027              -6.6097
        70                         -0.2278271              -6.1995
        71                         -0.2123324              -5.7779
        72                         -0.1705069              -4.6397
        73                         -0.1228159              -3.3420
        74                         -0.0814500              -2.2164
        75                         -0.0263539              -0.7171
        76                          0.0051247               0.1394
       ...                                ...                  ...
       120                          0.7003502              19.0575
      -------------------------------------------------------------
                  HL-Gap            0.0810788 Eh            2.2063 eV
             Fermi-level           -0.3467762 Eh           -9.4363 eV

     #   Z          covCN         q      C6AA      α(0)
[...]
     DOI: 10.26434/chemrxiv.8326202.v1
   for GFN-FF:
   * S. Spicher and S. Grimme, Angew. Chem. Int. Ed., 2020, 59, 15665-15673.
     DOI: 10.1002/anie.202004239
   
   for ALPB and GBSA implicit solvation:
   * S. Ehlert, M. Stahn, S. Spicher, S. Grimme, J. Chem. Theory Comput.,
     2021, 17, 4250-4261. DOI: 10.1021/acs.jctc.1c00471
   
   for ddCOSMO and CPCM-X implicit solvation:
   * M. Stahn, S. Ehlert, S. Grimme, J. Phys. Chem. A,
     2023, XX, XXXX-XXXX. DOI: 10.1021/acs.jpca.3c04382
   
   for DFT-D4:
   * E. Caldeweyher, C. Bannwarth and S. Grimme, J. Chem. Phys., 2017,
     147, 034112. DOI: 10.1063/1.4993215
   * E. Caldeweyher, S. Ehlert, A. Hansen, H. Neugebauer, S. Spicher,
     C. Bannwarth and S. Grimme, J. Chem. Phys., 2019, 150, 154122.
     DOI: 10.1063/1.5090222
   * E. Caldeweyher, J.-M. Mewes, S. Ehlert and S. Grimme, Phys. Chem. Chem. Phys.
     2020, 22, 8499-8512. DOI: 10.1039/D0CP00502A
   
   for sTDA-xTB:
   * S. Grimme and C. Bannwarth, J. Chem. Phys., 2016, 145, 054103.
     DOI: 10.1063/1.4959605
   
   in the mass-spec context:
   * V. Asgeirsson, C. Bauer and S. Grimme, Chem. Sci., 2017, 8, 4879.
     DOI: 10.1039/c7sc00601b
   * J. Koopman and S. Grimme, ACS Omega 2019, 4, 12, 15120-15133.
     DOI: 10.1021/acsomega.9b02011
   
   for metadynamics refer to:
   * S. Grimme, J. Chem. Theory Comput., 2019, 155, 2847-2862
     DOI: 10.1021/acs.jctc.9b00143
   
   for SPH calculations refer to:
   * S. Spicher and S. Grimme, J. Chem. Theory Comput., 2021, 17, 1701-1714
     DOI: 10.1021/acs.jctc.0c01306
   
   for ONIOM refer to:
   * C. Plett, A. Katbashev, S. Ehlert, S. Grimme, M. Bursch,
     Phys. Chem. Chem. Phys., 2023, 25, 17860-17868. DOI: 10.1039/D3CP02178E
   
   for DIPRO refer to:
   * J. Kohn, N. Gildemeister, S. Grimme, D. Fazzi, A. Hansen,
     J. Chem. Phys., 2023, just accepted.
   
   for PTB refer to:
   * S. Grimme, M. Mueller, A. Hansen, J. Chem. Phys., 2023, 158, 124111.
     DOI: 10.1063/5.0137838
   
   with help from (in alphabetical order)
   P. Atkinson, C. Bannwarth, F. Bohle, G. Brandenburg, E. Caldeweyher
   M. Checinski, S. Dohm, S. Ehlert, S. Ehrlich, I. Gerasimov, C. Hölzer
   A. Katbashev, J. Kohn, J. Koopman, C. Lavigne, S. Lehtola, F. März, M. Müller,
   F. Musil, H. Neugebauer, J. Pisarek, C. Plett, P. Pracht, F. Pultar,
   J. Seibert, P. Shushkov, S. Spicher, M. Stahn, M. Steiner, T. Strunk,
   J. Stückrath, T. Rose, and J. Unsleber
   
 * started run on 2025/05/15 at 16:15:26.685     
   ID    Z sym.   atoms
    1    8 O      1, 6, 10, 12
    2    6 C      2-5, 7-9, 11, 13, 14, 16-19, 21-26
    3    7 N      15, 20
    4    1 H      27-42

           -------------------------------------------------
          |                Calculation Setup                |
           -------------------------------------------------

          program call               : xtb /rds/general/user/hgt20/home/callum/QDESCP/Camptothecin_rdkit_conf_3/Camptothecin_rdkit_conf_3.xyz --acc 1 --gfn 2 --chrg 0 --uhf 2 --etemp 300 --input /rds/general/user/hgt20/home/callum/QDESCP/Camptothecin_rdkit_conf_3/Camptothecin_rdkit_conf_3_xtb.inp -P 1
          hostname                   : login-c
          coordinate file            : /rds/general/user/hgt20/home/callum/QDESCP/Camptothecin_rdkit_conf_3/Camptothecin_rdkit_conf_3.xyz
          omp threads                :                     1


           -------------------------------------------------
          |                 G F N 2 - x T B                 |
           -------------------------------------------------

        Reference                      10.1021/acs.jctc.8b01176
      * Hamiltonian:
        H0-scaling (s, p, d)           1.850000    2.230000    2.230000
        zeta-weighting                 0.500000
      * Dispersion:
        s8                             2.700000
        a1                             0.520000
        a2                             5.000000
        s9                             5.000000
      * Repulsion:
        kExp                           1.500000    1.000000
        rExp                           1.000000
      * Coulomb:
        alpha                          2.000000
        third order                    shell-resolved
        anisotropic                    true
        a3                             3.000000
        a5                             4.000000
        cn-shift                       1.200000
        cn-exp                         4.000000
        max-rad                        5.000000


          ...................................................
          :                      SETUP                      :
          :.................................................:
          :  # basis functions                 120          :
          :  # atomic orbitals                 120          :
          :  # shells                           68          :
          :  # electrons                       130          :
          :  max. iterations                   250          :
          :  Hamiltonian                  GFN2-xTB          :
          :  restarted?                      false          :
          :  GBSA solvation                  false          :
          :  PC potential                    false          :
          :  electronic temp.          300.0000000     K    :
          :  accuracy                    1.0000000          :
          :  -> integral cutoff          0.2500000E+02      :
          :  -> integral neglect         0.1000000E-07      :
          :  -> SCF convergence          0.1000000E-05 Eh   :
          :  -> wf. convergence          0.1000000E-03 e    :
          :  Broyden damping             0.4000000          :
          :  net charge                          0          :
          :  unpaired electrons                  2          :
          ...................................................

 iter      E             dE          RMSdq      gap      omega  full diag
   1    -73.9354198 -0.739354E+02  0.420E+00    0.74       0.0  T
   2    -73.9989939 -0.635741E-01  0.286E+00    0.95       1.0  T
   3    -73.8628475  0.136146E+00  0.216E+00    0.88       1.0  T
   4    -73.8963700 -0.335225E-01  0.163E+00    1.02       1.0  T
   5    -74.0723039 -0.175934E+00  0.678E-01    0.93       1.0  T
   6    -74.0875550 -0.152511E-01  0.380E-01    0.84       1.0  T
   7    -74.0733738  0.141813E-01  0.522E-01    0.84       1.0  T
   8    -74.0881593 -0.147855E-01  0.313E-01    0.85       1.0  T
   9    -74.0960649 -0.790561E-02  0.619E-02    0.85       1.0  T
  10    -74.0958142  0.250701E-03  0.755E-02    0.84       1.0  T
  11    -74.0962577 -0.443418E-03  0.703E-03    0.84       2.2  T
  12    -74.0962535  0.413262E-05  0.902E-03    0.84       1.7  T
  13    -74.0962547 -0.122443E-05  0.791E-03    0.84       2.0  T
  14    -74.0962591 -0.439652E-05  0.238E-03    0.84       6.5  T
  15    -74.0962596 -0.443807E-06  0.296E-04    0.84      52.2  T
  16    -74.0962596  0.262612E-07  0.615E-04    0.84      25.1  T

   *** convergence criteria satisfied after 16 iterations ***

         #    Occupation            Energy/Eh            Energy/eV
      -------------------------------------------------------------
         1        2.0000           -0.7629334             -20.7605
       ...           ...                  ...                  ...
        60        2.0000           -0.4231254             -11.5138
        61        2.0000           -0.4150340             -11.2937
        62        2.0000           -0.4146572             -11.2834
        63        1.9997           -0.4023461             -10.9484
        64        1.5761           -0.3947930             -10.7429
        65        1.4242           -0.3942112             -10.7270
        66        1.0000           -0.3019160              -8.2156 (HOMO)
        67                         -0.2708908              -7.3713 (LUMO)
        68                         -0.2522391              -6.8638
        69                         -0.2449280              -6.6648
        70                         -0.2264878              -6.1630
        71                         -0.2072139              -5.6386
       ...                                ...                  ...
       120                          0.7031687              19.1342
      -------------------------------------------------------------
                  HL-Gap            0.0310252 Eh            0.8442 eV
             Fermi-level           -0.3404525 Eh           -9.2642 eV

 transition dipole moment (au) for excitation:          65          66
     X       Y       Z   
   2.1548   0.6763   0.2533  total (au/Debye):    2.273   5.776
 dE (eV)             :    2.511
 oscillator strength :  0.44941E+00

 SCC (total)                   0 d,  0 h,  0 min,  0.132 sec
 SCC setup                      ...        0 min,  0.000 sec (  0.280%)
 Dispersion                     ...        0 min,  0.000 sec (  0.379%)
 classical contributions        ...        0 min,  0.000 sec (  0.110%)
 integral evaluation            ...        0 min,  0.009 sec (  6.643%)
 iterations                     ...        0 min,  0.089 sec ( 67.191%)
 molecular gradient             ...        0 min,  0.026 sec ( 19.425%)
 printout                       ...        0 min,  0.008 sec (  5.968%)

         :::::::::::::::::::::::::::::::::::::::::::::::::::::
         ::                     SUMMARY                     ::
         :::::::::::::::::::::::::::::::::::::::::::::::::::::
         :: total energy             -73.081174801147 Eh    ::
         :: gradient norm              0.110764867569 Eh/a0 ::
         :: HOMO-LUMO gap              0.844239956515 eV    ::
         ::.................................................::
         :: SCC energy               -74.096270075533 Eh    ::
         :: -> isotropic ES            0.105209923170 Eh    ::
         :: -> anisotropic ES          0.003298747268 Eh    ::
         :: -> anisotropic XC          0.017678451330 Eh    ::
         :: -> dispersion             -0.050850842342 Eh    ::
         :: repulsion energy           1.015095274387 Eh    ::
         :: add. restraining           0.000000000000 Eh    ::
         :: total charge               0.000000000043 e     ::
         :::::::::::::::::::::::::::::::::::::::::::::::::::::

           -------------------------------------------------
          |                Property Printout                |
           -------------------------------------------------

    * Orbital Energies and Occupations

         #    Occupation            Energy/Eh            Energy/eV
      -------------------------------------------------------------
         1        2.0000           -0.7629334             -20.7605
       ...           ...                  ...                  ...
        54        2.0000           -0.4570162             -12.4360
        55        2.0000           -0.4521280             -12.3030
        56        2.0000           -0.4459027             -12.1336
        57        2.0000           -0.4456813             -12.1276
        58        2.0000           -0.4413900             -12.0108
        59        2.0000           -0.4345244             -11.8240
        60        2.0000           -0.4231254             -11.5138
        61        2.0000           -0.4150340             -11.2937
        62        2.0000           -0.4146572             -11.2834
        63        1.9997           -0.4023461             -10.9484
        64        1.5761           -0.3947930             -10.7429
        65        1.4242           -0.3942112             -10.7270
        66        1.0000           -0.3019160              -8.2156 (HOMO)
        67                         -0.2708908              -7.3713 (LUMO)
        68                         -0.2522391              -6.8638
        69                         -0.2449280              -6.6648
        70                         -0.2264878              -6.1630
        71                         -0.2072139              -5.6386
        72                         -0.1670689              -4.5462
        73                         -0.1223242              -3.3286
        74                         -0.0756580              -2.0588
        75                         -0.0284687              -0.7747
        76                          0.0019888               0.0541
        77                          0.0346855               0.9438
       ...                                ...                  ...
       120                          0.7031687              19.1342
      -------------------------------------------------------------
                  HL-Gap            0.0310252 Eh            0.8442 eV
             Fermi-level           -0.3404525 Eh           -9.2642 eV

     #   Z          covCN         q      C6AA      α(0)
     1   8 O        0.858    -0.425    22.177     6.314
     2   6 C        2.769     0.257    22.684     7.800
     3   6 C        2.970    -0.061    29.513     8.911
     4   6 C        2.984     0.004    27.920     8.667
     5   6 C        3.786     0.117    18.691     6.158
     6   8 O        1.656    -0.439    21.615     6.276
     7   6 C        3.804    -0.056    21.581     6.614
     8   6 C        3.752    -0.105    22.576     6.776
     9   6 C        2.714     0.340    21.216     7.540
    10   8 O        1.704    -0.234    17.886     5.710
    11   6 C        3.701     0.073    19.510     6.316
    12   8 O        0.857    -0.390    21.483     6.214
    13   6 C        2.912    -0.039    28.971     8.826
    14   6 C        2.981     0.048    26.924     8.511
    15   7 N        2.806    -0.053    22.262     7.008
    16   6 C        3.794     0.000    20.585     6.461
    17   6 C        3.027     0.066    26.495     8.443
    18   6 C        3.031    -0.004    28.099     8.695
    19   6 C        2.918    -0.050    29.232     8.866
    20   7 N        1.840    -0.195    26.051     7.564
    21   6 C        2.985     0.095    25.892     8.347
    22   6 C        2.989     0.010    27.792     8.648
    23   6 C        2.916    -0.041    29.011     8.832
    24   6 C        2.916    -0.032    28.803     8.801
    25   6 C        2.916    -0.027    28.686     8.783
    26   6 C        2.920    -0.048    29.180     8.858
    27   1 H        0.804     0.317     0.673     1.289
    28   1 H        0.924     0.050     2.322     2.383
    29   1 H        0.924     0.031     2.574     2.509
    30   1 H        0.925     0.037     2.485     2.465
    31   1 H        0.925     0.063     2.163     2.300
    32   1 H        0.925     0.045     2.379     2.412
    33   1 H        0.924     0.099     1.792     2.094
    34   1 H        0.923     0.067     2.113     2.273
    35   1 H        0.926     0.092     1.859     2.132
    36   1 H        0.924     0.085     1.931     2.173
    37   1 H        0.924     0.086     1.919     2.166
    38   1 H        0.926     0.046     2.373     2.409
    39   1 H        0.926     0.041     2.439     2.442
    40   1 H        0.926     0.037     2.492     2.469
    41   1 H        0.926     0.040     2.444     2.445
    42   1 H        0.926     0.054     2.275     2.359

 Mol. C6AA /au·bohr⁶  :      23100.824580
 Mol. C8AA /au·bohr⁸  :     563485.205363
 Mol. α(0) /au        :        236.259067


Wiberg/Mayer (AO) data.
largest (>0.10) Wiberg bond orders for each atom

 ---------------------------------------------------------------------------
     #   Z sym  total        # sym  WBO       # sym  WBO       # sym  WBO
 ---------------------------------------------------------------------------
     1   8 O    1.897 --     2 C    1.622    15 N    0.114
     2   6 C    3.940 --     1 O    1.622     3 C    1.114    15 N    1.105
     3   6 C    3.788 --     4 C    1.397     2 C    1.114    11 C    1.019
     4   6 C    3.952 --     3 C    1.397    13 C    1.369     5 C    0.978
     5   6 C    3.961 --     6 O    1.005     4 C    0.978     7 C    0.926
                             9 C    0.916
     6   8 O    1.966 --     5 C    1.005    27 H    0.862
     7   6 C    3.986 --     8 C    1.018    29 H    0.975    28 H    0.974
                             5 C    0.926
     8   6 C    3.992 --     7 C    1.018    30 H    0.986    31 H    0.984
                            32 H    0.984
     9   6 C    3.910 --    12 O    1.735    10 O    1.165     5 C    0.916
    10   8 O    2.348 --     9 C    1.165    11 C    0.938    12 O    0.163
    11   6 C    3.917 --     3 C    1.019    33 H    0.952    10 O    0.938
                            34 H    0.937
    12   8 O    2.056 --     9 C    1.735    10 O    0.163
    13   6 C    3.847 --     4 C    1.369    14 C    1.298    35 H    0.960
    14   6 C    3.867 --    13 C    1.298    17 C    1.180    15 N    1.170
    15   7 N    3.545 --    14 C    1.170     2 C    1.105    16 C    0.982
                             1 O    0.114
    16   6 C    3.957 --    18 C    1.016    15 N    0.982    36 H    0.941
                            37 H    0.939
    17   6 C    3.926 --    20 N    1.338    14 C    1.180    18 C    1.171
    18   6 C    3.935 --    19 C    1.549    17 C    1.171    16 C    1.016
    19   6 C    3.938 --    18 C    1.549    22 C    1.213    38 H    0.953
    20   7 N    2.951 --    17 C    1.338    21 C    1.292
    21   6 C    3.925 --    20 N    1.292    26 C    1.265    22 C    1.189
    22   6 C    3.925 --    23 C    1.332    19 C    1.213    21 C    1.189
    23   6 C    3.938 --    24 C    1.472    22 C    1.332    39 H    0.961
    24   6 C    3.924 --    23 C    1.472    25 C    1.349    40 H    0.970
    25   6 C    3.974 --    26 C    1.516    24 C    1.349    41 H    0.969
    26   6 C    3.937 --    25 C    1.516    21 C    1.265    42 H    0.963
    27   1 H    0.899 --     6 O    0.862
    28   1 H    0.996 --     7 C    0.974
    29   1 H    0.999 --     7 C    0.975
    30   1 H    0.998 --     8 C    0.986
    31   1 H    0.996 --     8 C    0.984
    32   1 H    0.997 --     8 C    0.984
    33   1 H    0.985 --    11 C    0.952
    34   1 H    0.982 --    11 C    0.937
    35   1 H    0.991 --    13 C    0.960
    36   1 H    0.983 --    16 C    0.941
    37   1 H    0.983 --    16 C    0.939
    38   1 H    0.982 --    19 C    0.953
    39   1 H    0.990 --    23 C    0.961
    40   1 H    0.998 --    24 C    0.970
    41   1 H    0.996 --    25 C    0.969
    42   1 H    0.991 --    26 C    0.963
 ---------------------------------------------------------------------------

Topologies differ in total number of bonds
Writing topology from bond orders to xtbtopo.mol

molecular dipole:
                 x           y           z       tot (Debye)
 q only:        1.831       0.663      -0.891
   full:        1.740       0.369      -1.103       5.320
molecular quadrupole (traceless):
                xx          xy          yy          xz          yz          zz
 q only:        0.324      -9.089      -0.007      12.598      -1.186      -0.317
  q+dip:        5.498     -11.351      -1.473      13.932      -0.607      -4.025
   full:        2.916     -11.436      -2.841      14.317      -3.775      -0.075


           -------------------------------------------------
          | TOTAL ENERGY              -73.081174801147 Eh   |
          | GRADIENT NORM               0.110764867569 Eh/α |
          | HOMO-LUMO GAP               0.844239956515 eV   |
           -------------------------------------------------

------------------------------------------------------------------------
 * finished run on 2025/05/15 at 16:15:26.883     
------------------------------------------------------------------------
 total:
 * wall-time:     0 d,  0 h,  0 min,  0.198 sec
 *  cpu-time:     0 d,  0 h,  0 min,  0.094 sec
 * ratio c/w:     0.478 speedup
 SCF:
 * wall-time:     0 d,  0 h,  0 min,  0.132 sec
 *  cpu-time:     0 d,  0 h,  0 min,  0.082 sec
 * ratio c/w:     0.619 speedup


