42
 energy: -73.167801162169 gnorm: 0.000238497844 xtb: 6.7.1 (edcfbbe)
O           -1.30596317376116       -3.33859456735991       -1.40730720614455
C           -1.24200813646721       -2.25135406426018       -0.85720428028937
C           -2.36553564529593       -1.45328273031680       -0.41677180196763
C           -2.20475558368728       -0.24510220213119        0.20250342977509
C           -3.44809728350574        0.50283909415037        0.60295139868832
O           -3.19153580170386        1.39875234839671        1.65220907695433
C           -4.05217029011277        1.26600050278478       -0.60825767354395
C           -3.08634183782521        2.32395115692920       -1.12534013210270
C           -4.50771528153709       -0.50597917517146        1.07521485327434
O           -4.63843271581824       -1.65363193214330        0.43267102918014
C           -3.73636110108647       -2.01709095167275       -0.60804927091473
O           -5.20944112723767       -0.23101652879577        2.01633380878836
C           -0.92115018971315        0.28126659350259        0.45024814359247
C            0.14654138404291       -0.45310188285099        0.02471666814557
N           -0.02159907668077       -1.65447937949541       -0.60003884277877
C            1.23757699558638       -2.28187994016102       -0.96470346365928
C            1.57174719559163       -0.18702395188049        0.09567569729490
C            2.24937785543363       -1.28668138629538       -0.50406330949471
C            3.60981336687828       -1.26789973675961       -0.56964871954369
N            2.15151285044092        0.86540860717065        0.60071691059942
C            3.49853448724373        0.90546072779764        0.54534277342863
C            4.27829178007712       -0.14123749302399       -0.03338448145502
C            5.68002455689845       -0.01302667764216       -0.05360639581812
C            6.28537971062970        1.09540842576935        0.47196800915571
C            5.51774000424843        2.12347525087790        1.04199897401465
C            4.15423549846100        2.03364734704097        1.07999028339090
H           -3.93467812301415        1.32124580567863        2.27424232656074
H           -4.97161560362516        1.74506281632064       -0.26407111396944
H           -4.30607897357658        0.56538300226929       -1.40432001335135
H           -2.20250419776414        1.86194665979364       -1.55905810495695
H           -2.77557238208165        2.96643106788874       -0.30615332484495
H           -3.57178219334860        2.93126633297138       -1.88494874321930
H           -3.68881520749057       -3.11042434094485       -0.60199047304221
H           -4.16422032170120       -1.70698495806155       -1.57132430304319
H           -0.79587200569267        1.22167724630087        0.95446785492225
H            1.26599100059361       -2.46407160306581       -2.04418714303750
H            1.32851035151612       -3.25318237927006       -0.46635455903664
H            4.17873067895580       -2.07283013332644       -1.01362062986221
H            6.26669194179015       -0.80711879582533       -0.49329008801919
H            7.36111758150607        1.18682783438399        0.45142250795004
H            6.01663632112356        2.98919374717182        1.45135291671051
H            3.54399269170847        2.81045024325476        1.51246741166806
