62
 energy: -94.883302605736 gnorm: 0.000846842772 xtb: 6.7.1 (edcfbbe)
C           -7.26369055850267        2.37710839006069       -1.79772525226560
C           -6.26809362942183        2.98132770177679       -0.85182734117392
C           -5.03526361081696        2.16488580329789       -0.61168959405792
C           -3.79008723963852        2.71417867861684       -0.71050479889441
C           -3.54808866627959        4.13853099784639       -1.09548970004674
C           -2.65761634171287        1.87652237978751       -0.46934399907678
C           -1.32019445571886        2.28173420286031       -0.56075335587207
N           -0.30112724652860        1.49264282502457       -0.32050318292428
C           -0.58549604641473        0.22968813398729        0.03366566361148
N            0.40758274407535       -0.64190786193696        0.30548830861595
C            1.78604825564850       -0.50085287379468        0.26552351729317
N            2.43425329743782       -1.61384119620930        0.59138729193691
C            3.75193270658434       -1.62203220557317        0.57403500192848
C            4.53722862391067       -0.51572002667522        0.22579581619151
C            3.83281371138043        0.65523250044042       -0.09675075691893
C            2.45604298053562        0.67302350791395       -0.07935573832828
N            5.92006629321223       -0.52729901100800        0.25828622835221
C            6.62329191092940       -1.64992307641483        0.84256531653175
C            8.00550456758743       -1.17798881336914        1.32484940203968
N            8.79185190248246       -0.55029002784466        0.28287303983228
C            8.04020020910720        0.53567210573512       -0.31506872240342
C            6.66972798230392        0.07622846643431       -0.82761295767241
N           -1.81271140743795       -0.27443336554058        0.15155406248081
C           -2.84570067189687        0.52225378754280       -0.09141761241926
N           -4.09811939737099        0.01045922321900        0.02784182224579
C           -4.30536629729488       -1.37601950400750        0.43314519698073
C           -3.64717368149237       -2.41052651170389       -0.50420414149087
C           -2.80975784492821       -3.31716484752731        0.40237509352498
C           -3.45672730572383       -3.17398116765814        1.77721089855348
C           -3.78568967156330       -1.68690039393456        1.84436766979492
C           -5.24129470752367        0.77004983184245       -0.23012993232296
O           -6.34211773337867        0.25887726795275       -0.11098847446695
O           -6.43110716762598        4.05979447589279       -0.33048422975000
H           -7.69991463453947        1.50342139882300       -1.31688033296896
H           -8.04140138150041        3.09966271128499       -2.02895736309484
H           -6.76867448441737        2.04407531208589       -2.70709253370136
H           -2.99920873953132        4.64397105402534       -0.30226964001830
H           -4.47906781950919        4.67090858038266       -1.25289475543951
H           -2.95065496538059        4.18487658876290       -2.00567778678447
H           -1.05905824827794        3.29318734201805       -0.84032419218042
H            0.10344580251829       -1.57010451469230        0.57444876115052
H            4.19204769021188       -2.57242876246265        0.84037379004749
H            4.36623365525980        1.56071810746802       -0.34330494874941
H            1.89821491123873        1.56153607774474       -0.31799519657548
H            6.06201637255319       -2.02054570203044        1.70027043137692
H            6.74632239881631       -2.47041122893796        0.11448094590641
H            8.56372952364757       -2.02499865928365        1.72808263176816
H            7.86895260894555       -0.43880873056261        2.11929754734867
H            9.02343342632089       -1.23695558752176       -0.43106469627423
H            7.90089197635002        1.30093320902246        0.45355288904714
H            8.62270951669487        0.96177166501972       -1.13415523775430
H            6.81831613098952       -0.66264341425319       -1.63579150847057
H            6.12136386823454        0.92061547480167       -1.24044236761047
H           -5.39071001441977       -1.50478035937782        0.41363300832161
H           -3.03326289165637       -1.92562233084613       -1.26013266399951
H           -4.42054538899918       -2.98442620774343       -1.01479289922546
H           -1.78597391002362       -2.94700501623110        0.44436181035073
H           -2.79348922190921       -4.34791954971757        0.05177894852810
H           -2.80027117992120       -3.49213350629242        2.58549210845371
H           -4.37481169587352       -3.76194049193826        1.82337892340783
H           -4.52381614608966       -1.44625861172007        2.60793136383091
H           -2.87773866365317       -1.11782424485911        2.03757842347647
