----- Optimization -----
      -----------------------------------------------------------      
     |                   =====================                   |     
     |                           x T B                           |     
     |                   =====================                   |     
     |                         S. Grimme                         |     
     |          Mulliken Center for Theoretical Chemistry        |     
     |                    University of Bonn                     |     
      -----------------------------------------------------------      

   * xtb version 6.7.1 (edcfbbe) compiled by 'conda@3ef47c1a292c' on 2024-11-25

   xtb is free software: you can redistribute it and/or modify it under
   the terms of the GNU Lesser General Public License as published by
   the Free Software Foundation, either version 3 of the License, or
   (at your option) any later version.
   
   xtb is distributed in the hope that it will be useful,
   but WITHOUT ANY WARRANTY; without even the implied warranty of
   MERCHANTABILITY or FITNESS FOR A PARTICULAR PURPOSE.  See the
   GNU Lesser General Public License for more details.
   
   Cite this work as:
   * C. Bannwarth, E. Caldeweyher, S. Ehlert, A. Hansen, P. Pracht,
     J. Seibert, S. Spicher, S. Grimme, WIREs Comput. Mol. Sci., 2020, 11,
     e01493. DOI: 10.1002/wcms.1493
   
   for GFN2-xTB:
   * C. Bannwarth, S. Ehlert and S. Grimme., J. Chem. Theory Comput., 2019,
     15, 1652-1671. DOI: 10.1021/acs.jctc.8b01176
   for GFN1-xTB:
   * S. Grimme, C. Bannwarth, P. Shushkov, J. Chem. Theory Comput., 2017,
     13, 1989-2009. DOI: 10.1021/acs.jctc.7b00118
   for GFN0-xTB:
   * P. Pracht, E. Caldeweyher, S. Ehlert, S. Grimme, ChemRxiv, 2019, preprint.
     DOI: 10.26434/chemrxiv.8326202.v1
   for GFN-FF:
   * S. Spicher and S. Grimme, Angew. Chem. Int. Ed., 2020, 59, 15665-15673.
     DOI: 10.1002/anie.202004239
   
   for ALPB and GBSA implicit solvation:
   * S. Ehlert, M. Stahn, S. Spicher, S. Grimme, J. Chem. Theory Comput.,
     2021, 17, 4250-4261. DOI: 10.1021/acs.jctc.1c00471
   
   for ddCOSMO and CPCM-X implicit solvation:
   * M. Stahn, S. Ehlert, S. Grimme, J. Phys. Chem. A,
     2023, XX, XXXX-XXXX. DOI: 10.1021/acs.jpca.3c04382
   
   for DFT-D4:
   * E. Caldeweyher, C. Bannwarth and S. Grimme, J. Chem. Phys., 2017,
     147, 034112. DOI: 10.1063/1.4993215
   * E. Caldeweyher, S. Ehlert, A. Hansen, H. Neugebauer, S. Spicher,
     C. Bannwarth and S. Grimme, J. Chem. Phys., 2019, 150, 154122.
     DOI: 10.1063/1.5090222
   * E. Caldeweyher, J.-M. Mewes, S. Ehlert and S. Grimme, Phys. Chem. Chem. Phys.
     2020, 22, 8499-8512. DOI: 10.1039/D0CP00502A
   
   for sTDA-xTB:
   * S. Grimme and C. Bannwarth, J. Chem. Phys., 2016, 145, 054103.
     DOI: 10.1063/1.4959605
   
   in the mass-spec context:
   * V. Asgeirsson, C. Bauer and S. Grimme, Chem. Sci., 2017, 8, 4879.
     DOI: 10.1039/c7sc00601b
   * J. Koopman and S. Grimme, ACS Omega 2019, 4, 12, 15120-15133.
     DOI: 10.1021/acsomega.9b02011
   
   for metadynamics refer to:
   * S. Grimme, J. Chem. Theory Comput., 2019, 155, 2847-2862
     DOI: 10.1021/acs.jctc.9b00143
   
   for SPH calculations refer to:
   * S. Spicher and S. Grimme, J. Chem. Theory Comput., 2021, 17, 1701-1714
     DOI: 10.1021/acs.jctc.0c01306
   
   for ONIOM refer to:
   * C. Plett, A. Katbashev, S. Ehlert, S. Grimme, M. Bursch,
     Phys. Chem. Chem. Phys., 2023, 25, 17860-17868. DOI: 10.1039/D3CP02178E
   
   for DIPRO refer to:
   * J. Kohn, N. Gildemeister, S. Grimme, D. Fazzi, A. Hansen,
     J. Chem. Phys., 2023, just accepted.
   
   for PTB refer to:
   * S. Grimme, M. Mueller, A. Hansen, J. Chem. Phys., 2023, 158, 124111.
     DOI: 10.1063/5.0137838
   
   with help from (in alphabetical order)
   P. Atkinson, C. Bannwarth, F. Bohle, G. Brandenburg, E. Caldeweyher
   M. Checinski, S. Dohm, S. Ehlert, S. Ehrlich, I. Gerasimov, C. Hölzer
   A. Katbashev, J. Kohn, J. Koopman, C. Lavigne, S. Lehtola, F. März, M. Müller,
   F. Musil, H. Neugebauer, J. Pisarek, C. Plett, P. Pracht, F. Pultar,
   J. Seibert, P. Shushkov, S. Spicher, M. Stahn, M. Steiner, T. Strunk,
   J. Stückrath, T. Rose, and J. Unsleber
   
 * started run on 2025/05/15 at 16:14:24.002     
   ID    Z sym.   atoms
    1    6 C      1-7, 9, 11, 13-16, 18, 19, 21, 22, 24, 26-31
    2    7 N      8, 10, 12, 17, 20, 23, 25
    3    8 O      32, 33
    4    1 H      34-62

           -------------------------------------------------
          |                Calculation Setup                |
           -------------------------------------------------

          program call               : xtb /rds/general/user/hgt20/home/callum/QDESCP/Palbociclib_rdkit_conf_9/Palbociclib_rdkit_conf_9.xyz --opt normal --acc 1 --gfn 2 --chrg 0 --uhf 0 -P 1
          hostname                   : login-c
          coordinate file            : /rds/general/user/hgt20/home/callum/QDESCP/Palbociclib_rdkit_conf_9/Palbociclib_rdkit_conf_9.xyz
          omp threads                :                     1


           -------------------------------------------------
          |                 G F N 2 - x T B                 |
           -------------------------------------------------

        Reference                      10.1021/acs.jctc.8b01176
      * Hamiltonian:
        H0-scaling (s, p, d)           1.850000    2.230000    2.230000
        zeta-weighting                 0.500000
      * Dispersion:
        s8                             2.700000
        a1                             0.520000
        a2                             5.000000
        s9                             5.000000
      * Repulsion:
        kExp                           1.500000    1.000000
        rExp                           1.000000
      * Coulomb:
        alpha                          2.000000
        third order                    shell-resolved
        anisotropic                    true
        a3                             3.000000
        a5                             4.000000
        cn-shift                       1.200000
        cn-exp                         4.000000
        max-rad                        5.000000


          ...................................................
          :                      SETUP                      :
          :.................................................:
          :  # basis functions                 161          :
          :  # atomic orbitals                 161          :
          :  # shells                           95          :
          :  # electrons                       172          :
          :  max. iterations                   250          :
          :  Hamiltonian                  GFN2-xTB          :
          :  restarted?                      false          :
          :  GBSA solvation                  false          :
          :  PC potential                    false          :
          :  electronic temp.          300.0000000     K    :
          :  accuracy                    1.0000000          :
          :  -> integral cutoff          0.2500000E+02      :
          :  -> integral neglect         0.1000000E-07      :
          :  -> SCF convergence          0.1000000E-05 Eh   :
          :  -> wf. convergence          0.1000000E-03 e    :
          :  Broyden damping             0.4000000          :
          :  net charge                          0          :
          :  unpaired electrons                  0          :
          ...................................................

 iter      E             dE          RMSdq      gap      omega  full diag
   1    -95.9251306 -0.959251E+02  0.389E+00    1.83       0.0  T
   2    -96.0729187 -0.147788E+00  0.231E+00    1.92       1.0  T
   3    -96.0798540 -0.693531E-02  0.123E+00    1.81       1.0  T
   4    -96.0891010 -0.924706E-02  0.342E-01    1.60       1.0  T
   5    -96.0940757 -0.497469E-02  0.137E-01    1.68       1.0  T
   6    -96.0948100 -0.734230E-03  0.539E-02    1.67       1.0  T
   7    -96.0948841 -0.741029E-04  0.204E-02    1.68       1.0  T
   8    -96.0948874 -0.330276E-05  0.858E-03    1.68       1.5  T
   9    -96.0948883 -0.918135E-06  0.319E-03    1.68       4.0  T
  10    -96.0948885 -0.194068E-06  0.125E-03    1.68      10.2  T
  11    -96.0948885 -0.314546E-07  0.629E-04    1.68      20.2  T
  12    -96.0948885 -0.685928E-08  0.263E-04    1.68      48.3  T

   *** convergence criteria satisfied after 12 iterations ***

         #    Occupation            Energy/Eh            Energy/eV
      -------------------------------------------------------------
         1        2.0000           -0.7025942             -19.1186
       ...           ...                  ...                  ...
        80        2.0000           -0.4041889             -10.9985
        81        2.0000           -0.3973480             -10.8124
        82        2.0000           -0.3916044             -10.6561
        83        2.0000           -0.3800357             -10.3413
        84        2.0000           -0.3764232             -10.2430
        85        2.0000           -0.3752854             -10.2120
        86        2.0000           -0.3562727              -9.6947 (HOMO)
        87                         -0.2944421              -8.0122 (LUMO)
        88                         -0.2716889              -7.3930
        89                         -0.2538852              -6.9086
        90                         -0.2448197              -6.6619
        91                         -0.2359430              -6.4203
       ...                                ...                  ...
       161                          0.6825721              18.5737
      -------------------------------------------------------------
                  HL-Gap            0.0618306 Eh            1.6825 eV
             Fermi-level           -0.3253574 Eh           -8.8534 eV

 SCC (total)                   0 d,  0 h,  0 min,  0.200 sec
 SCC setup                      ...        0 min,  0.001 sec (  0.337%)
 Dispersion                     ...        0 min,  0.001 sec (  0.509%)
 classical contributions        ...        0 min,  0.000 sec (  0.153%)
 integral evaluation            ...        0 min,  0.013 sec (  6.674%)
 iterations                     ...        0 min,  0.088 sec ( 44.189%)
 molecular gradient             ...        0 min,  0.096 sec ( 47.954%)
 printout                       ...        0 min,  0.000 sec (  0.178%)

         :::::::::::::::::::::::::::::::::::::::::::::::::::::
         ::                     SUMMARY                     ::
         :::::::::::::::::::::::::::::::::::::::::::::::::::::
         :: total energy             -94.856683788196 Eh    ::
         :: gradient norm              0.126285048355 Eh/a0 ::
         :: HOMO-LUMO gap              1.682496874876 eV    ::
         ::.................................................::
         :: SCC energy               -96.095093031149 Eh    ::
         :: -> isotropic ES            0.111291334533 Eh    ::
         :: -> anisotropic ES          0.010389507564 Eh    ::
         :: -> anisotropic XC          0.056001298548 Eh    ::
         :: -> dispersion             -0.069943620517 Eh    ::
         :: repulsion energy           1.238409242953 Eh    ::
         :: add. restraining           0.000000000000 Eh    ::
         :: total charge              -0.000000000000 e     ::
         :::::::::::::::::::::::::::::::::::::::::::::::::::::

      ----------------------------------------------------------- 
     |                   =====================                   |
     |                        A N C O P T                        |
     |                   =====================                   |
     |               Approximate Normal Coordinate               |
     |                Rational Function Optimizer                |
      ----------------------------------------------------------- 
      ----------------------------------------------------------- 
     |                   =====================                   |
     |                        A N C O P T                        |
     |                   =====================                   |
     |               Approximate Normal Coordinate               |
     |                Rational Function Optimizer                |
      ----------------------------------------------------------- 

          ...................................................
          :                      SETUP                      :
          :.................................................:
          :   optimization level            normal          :
          :   max. optcycles                   200          :
          :   ANC micro-cycles                  20          :
          :   degrees of freedom               180          :
          :.................................................:
          :   RF solver                   davidson          :
          :   write xtbopt.log                true          :
          :   linear?                        false          :
          :   energy convergence         0.5000000E-05 Eh   :
          :   grad. convergence          0.1000000E-02 Eh/α :
          :   maxmium RF displ.          1.0000000          :
          :   Hlow (freq-cutoff)         0.1000000E-01      :
          :   Hmax (freq-cutoff)         5.0000000          :
          :   S6 in model hess.         20.0000000          :
          ...................................................

generating ANC from exact Hessian ...
Using Lindh-Hessian (1995)
 Shifting diagonal of input Hessian by    9.8454207705851882E-003
 Lowest  eigenvalues of input Hessian
    0.000000    0.000000    0.000000    0.000000    0.000000    0.000000
    0.010000    0.010162    0.010267    0.010400    0.010725    0.011007
    0.011284    0.011831    0.011993    0.012413    0.012925    0.013872
 Highest eigenvalues
    2.048047    2.063425    2.121477    2.226970    2.257795    2.302705


........................................................................
.............................. CYCLE    1 ..............................
........................................................................

 iter      E             dE          RMSdq      gap      omega  full diag
   1    -96.0948885 -0.960949E+02  0.827E-05    1.68       0.0  T
   2    -96.0948885 -0.123904E-09  0.548E-05    1.68     231.8  T
   3    -96.0948885 -0.101394E-09  0.310E-05    1.68     409.4  T
     SCC iter.                  ...        0 min,  0.014 sec
     gradient                   ...        0 min,  0.090 sec
 * total energy  :   -94.8566838 Eh     change       -0.1137565E-08 Eh
   gradient norm :     0.1262860 Eh/α   predicted     0.0000000E+00 (-100.00%)
   displ. norm   :     0.3904959 α      lambda       -0.2073009E-01
   maximum displ.:     0.1317920 α      in ANC's #13, #38, #24, ...

........................................................................
.............................. CYCLE    2 ..............................
........................................................................

 iter      E             dE          RMSdq      gap      omega  full diag
   1    -96.1390912 -0.961391E+02  0.174E-01    1.67       0.0  T
   2    -96.1393401 -0.248842E-03  0.107E-01    1.74       1.0  T
   3    -96.1393514 -0.112958E-04  0.589E-02    1.73       1.0  T
   4    -96.1394018 -0.504172E-04  0.163E-02    1.74       1.0  T
   5    -96.1394157 -0.139545E-04  0.514E-03    1.74       2.5  T
   6    -96.1394167 -0.990029E-06  0.240E-03    1.74       5.3  T
   7    -96.1394168 -0.673612E-07  0.988E-04    1.74      12.8  T
   8    -96.1394168 -0.220834E-07  0.300E-04    1.74      42.4  T
     SCC iter.                  ...        0 min,  0.073 sec
     gradient                   ...        0 min,  0.052 sec
 * total energy  :   -94.8716695 Eh     change       -0.1498573E-01 Eh
   gradient norm :     0.0578791 Eh/α   predicted    -0.1197418E-01 ( -20.10%)
   displ. norm   :     0.4470809 α      lambda       -0.9195889E-02
   maximum displ.:     0.2228037 α      in ANC's #13, #24, #22, ...

........................................................................
.............................. CYCLE    3 ..............................
........................................................................

 iter      E             dE          RMSdq      gap      omega  full diag
   1    -96.1700639 -0.961701E+02  0.133E-01    1.69       0.0  T
   2    -96.1702385 -0.174563E-03  0.798E-02    1.75       1.0  T
   3    -96.1702689 -0.304292E-04  0.482E-02    1.75       1.0  T
   4    -96.1702949 -0.259948E-04  0.145E-02    1.75       1.0  T
   5    -96.1703063 -0.114459E-04  0.398E-03    1.75       3.2  T
   6    -96.1703071 -0.737885E-06  0.161E-03    1.75       7.9  T
   7    -96.1703071 -0.267560E-07  0.653E-04    1.75      19.4  T
   8    -96.1703071 -0.759259E-08  0.209E-04    1.75      60.9  T
     SCC iter.                  ...        0 min,  0.036 sec
     gradient                   ...        0 min,  0.082 sec
 * total energy  :   -94.8774584 Eh     change       -0.5788885E-02 Eh
   gradient norm :     0.0195548 Eh/α   predicted    -0.5521115E-02 (  -4.63%)
   displ. norm   :     0.3813303 α      lambda       -0.2436743E-02
   maximum displ.:     0.2435610 α      in ANC's #13, #11, #9, ...

........................................................................
.............................. CYCLE    4 ..............................
........................................................................

 iter      E             dE          RMSdq      gap      omega  full diag
   1    -96.1795565 -0.961796E+02  0.704E-02    1.71       0.0  T
   2    -96.1795832 -0.266682E-04  0.417E-02    1.73       1.0  T
   3    -96.1795756  0.757946E-05  0.254E-02    1.73       1.0  T
   4    -96.1795924 -0.167981E-04  0.612E-03    1.73       2.1  T
   5    -96.1795945 -0.214481E-05  0.174E-03    1.73       7.3  T
   6    -96.1795946 -0.105598E-06  0.790E-04    1.73      16.1  T
   7    -96.1795946 -0.524467E-08  0.249E-04    1.73      51.0  T
     SCC iter.                  ...        0 min,  0.062 sec
     gradient                   ...        0 min,  0.050 sec
 * total energy  :   -94.8792866 Eh     change       -0.1828148E-02 Eh
   gradient norm :     0.0146122 Eh/α   predicted    -0.1395601E-02 ( -23.66%)
   displ. norm   :     0.4630615 α      lambda       -0.1780731E-02
   maximum displ.:     0.3052074 α      in ANC's #13, #9, #11, ...

........................................................................
.............................. CYCLE    5 ..............................
........................................................................

 iter      E             dE          RMSdq      gap      omega  full diag
   1    -96.1845379 -0.961845E+02  0.743E-02    1.70       0.0  T
   2    -96.1845576 -0.196766E-04  0.442E-02    1.71       1.0  T
   3    -96.1845457  0.119310E-04  0.204E-02    1.71       1.0  T
   4    -96.1845612 -0.155797E-04  0.520E-03    1.71       2.4  T
   5    -96.1845627 -0.147135E-05  0.181E-03    1.71       7.0  T
   6    -96.1845628 -0.821572E-07  0.851E-04    1.71      14.9  T
   7    -96.1845628 -0.646132E-08  0.267E-04    1.71      47.6  T
     SCC iter.                  ...        0 min,  0.030 sec
     gradient                   ...        0 min,  0.087 sec
 * total energy  :   -94.8805284 Eh     change       -0.1241823E-02 Eh
   gradient norm :     0.0104905 Eh/α   predicted    -0.1081288E-02 ( -12.93%)
   displ. norm   :     0.3629119 α      lambda       -0.7780190E-03
   maximum displ.:     0.2286403 α      in ANC's #13, #9, #7, ...

........................................................................
.............................. CYCLE    6 ..............................
........................................................................

 iter      E             dE          RMSdq      gap      omega  full diag
   1    -96.1868483 -0.961868E+02  0.578E-02    1.69       0.0  T
   2    -96.1868548 -0.651100E-05  0.339E-02    1.69       1.0  T
   3    -96.1868504  0.433453E-05  0.111E-02    1.69       1.1  T
   4    -96.1868559 -0.549340E-05  0.270E-03    1.69       4.7  T
   5    -96.1868562 -0.292110E-06  0.117E-03    1.69      10.9  T
   6    -96.1868563 -0.283632E-07  0.585E-04    1.69      21.7  T
   7    -96.1868563 -0.705782E-08  0.192E-04    1.69      66.1  T
     SCC iter.                  ...        0 min,  0.068 sec
     gradient                   ...        0 min,  0.088 sec
 * total energy  :   -94.8810882 Eh     change       -0.5597765E-03 Eh
   gradient norm :     0.0090286 Eh/α   predicted    -0.4402453E-03 ( -21.35%)
   displ. norm   :     0.3350472 α      lambda       -0.5333592E-03
   maximum displ.:     0.1734355 α      in ANC's #13, #9, #7, ...

........................................................................
.............................. CYCLE    7 ..............................
........................................................................

 iter      E             dE          RMSdq      gap      omega  full diag
   1    -96.1883285 -0.961883E+02  0.582E-02    1.69       0.0  T
   2    -96.1883324 -0.390200E-05  0.341E-02    1.69       1.0  T
   3    -96.1883292  0.317562E-05  0.848E-03    1.68       1.5  T
   4    -96.1883333 -0.410942E-05  0.188E-03    1.69       6.7  T
   5    -96.1883334 -0.985326E-07  0.924E-04    1.69      13.7  T
   6    -96.1883335 -0.110280E-07  0.481E-04    1.69      26.4  T
     SCC iter.                  ...        0 min,  0.025 sec
     gradient                   ...        0 min,  0.102 sec
 * total energy  :   -94.8814886 Eh     change       -0.4004813E-03 Eh
   gradient norm :     0.0077622 Eh/α   predicted    -0.2966169E-03 ( -25.93%)
   displ. norm   :     0.3563501 α      lambda       -0.4915589E-03
   maximum displ.:     0.1656252 α      in ANC's #9, #7, #13, ...

........................................................................
.............................. CYCLE    8 ..............................
........................................................................

 iter      E             dE          RMSdq      gap      omega  full diag
   1    -96.1892280 -0.961892E+02  0.705E-02    1.68       0.0  T
   2    -96.1892322 -0.421535E-05  0.414E-02    1.68       1.0  T
   3    -96.1892261  0.610193E-05  0.110E-02    1.68       1.2  T
   4    -96.1892336 -0.743999E-05  0.223E-03    1.68       5.7  T
   5    -96.1892337 -0.142838E-06  0.112E-03    1.68      11.3  T
   6    -96.1892337 -0.204081E-07  0.594E-04    1.68      21.4  T
   7    -96.1892337 -0.827660E-08  0.230E-04    1.68      55.2  T
     SCC iter.                  ...        0 min,  0.030 sec
     gradient                   ...        0 min,  0.096 sec
 * total energy  :   -94.8818578 Eh     change       -0.3691794E-03 Eh
   gradient norm :     0.0074417 Eh/α   predicted    -0.2769907E-03 ( -24.97%)
   displ. norm   :     0.3688197 α      lambda       -0.4343793E-03
   maximum displ.:     0.1586430 α      in ANC's #9, #7, #10, ...

........................................................................
.............................. CYCLE    9 ..............................
........................................................................

 iter      E             dE          RMSdq      gap      omega  full diag
   1    -96.1894275 -0.961894E+02  0.749E-02    1.67       0.0  T
   2    -96.1894315 -0.404036E-05  0.439E-02    1.68       1.0  T
   3    -96.1894220  0.954517E-05  0.140E-02    1.68       1.0  T
   4    -96.1894334 -0.113943E-04  0.246E-03    1.68       5.2  T
   5    -96.1894335 -0.173259E-06  0.125E-03    1.68      10.2  T
   6    -96.1894336 -0.259001E-07  0.623E-04    1.68      20.4  T
   7    -96.1894336 -0.882606E-08  0.225E-04    1.68      56.3  T
     SCC iter.                  ...        0 min,  0.081 sec
     gradient                   ...        0 min,  0.089 sec
 * total energy  :   -94.8821846 Eh     change       -0.3267673E-03 Eh
   gradient norm :     0.0076795 Eh/α   predicted    -0.2467355E-03 ( -24.49%)
   displ. norm   :     0.3581506 α      lambda       -0.3796969E-03
   maximum displ.:     0.1377958 α      in ANC's #10, #9, #5, ...

........................................................................
.............................. CYCLE   10 ..............................
........................................................................

 iter      E             dE          RMSdq      gap      omega  full diag
   1    -96.1896321 -0.961896E+02  0.721E-02    1.66       0.0  T
   2    -96.1896362 -0.414131E-05  0.419E-02    1.67       1.0  T
   3    -96.1896241  0.121281E-04  0.165E-02    1.67       1.0  T
   4    -96.1896385 -0.143874E-04  0.260E-03    1.67       4.9  T
   5    -96.1896387 -0.219975E-06  0.125E-03    1.67      10.1  T
   6    -96.1896387 -0.272487E-07  0.588E-04    1.67      21.6  T
   7    -96.1896387 -0.726497E-08  0.209E-04    1.67      60.9  T
     SCC iter.                  ...        0 min,  0.072 sec
     gradient                   ...        0 min,  0.100 sec
 * total energy  :   -94.8824631 Eh     change       -0.2784815E-03 Eh
   gradient norm :     0.0070146 Eh/α   predicted    -0.2142017E-03 ( -23.08%)
   displ. norm   :     0.3208442 α      lambda       -0.2747052E-03
   maximum displ.:     0.1357021 α      in ANC's #10, #5, #9, ...

........................................................................
.............................. CYCLE   11 ..............................
........................................................................

 iter      E             dE          RMSdq      gap      omega  full diag
   1    -96.1894068 -0.961894E+02  0.577E-02    1.65       0.0  T
   2    -96.1894101 -0.332045E-05  0.333E-02    1.66       1.0  T
   3    -96.1894022  0.786233E-05  0.141E-02    1.66       1.0  T
   4    -96.1894117 -0.951956E-05  0.236E-03    1.66       5.4  T
   5    -96.1894120 -0.201152E-06  0.109E-03    1.66      11.6  T
   6    -96.1894120 -0.158913E-07  0.526E-04    1.66      24.2  T
   7    -96.1894120 -0.526916E-08  0.148E-04    1.66      85.7  T
     SCC iter.                  ...        0 min,  0.030 sec
     gradient                   ...        0 min,  0.087 sec
 * total energy  :   -94.8826531 Eh     change       -0.1900703E-03 Eh
   gradient norm :     0.0065450 Eh/α   predicted    -0.1514967E-03 ( -20.29%)
   displ. norm   :     0.2388580 α      lambda       -0.1946808E-03
   maximum displ.:     0.1100972 α      in ANC's #5, #10, #4, ...

........................................................................
.............................. CYCLE   12 ..............................
........................................................................

 iter      E             dE          RMSdq      gap      omega  full diag
   1    -96.1907187 -0.961907E+02  0.425E-02    1.63       0.0  T
   2    -96.1907216 -0.294463E-05  0.244E-02    1.64       1.0  T
   3    -96.1907172  0.440844E-05  0.110E-02    1.64       1.2  T
   4    -96.1907227 -0.544448E-05  0.210E-03    1.64       6.0  T
   5    -96.1907229 -0.179352E-06  0.909E-04    1.64      14.0  T
   6    -96.1907229 -0.152872E-07  0.420E-04    1.64      30.2  T
     SCC iter.                  ...        0 min,  0.060 sec
     gradient                   ...        0 min,  0.091 sec
 * total energy  :   -94.8827574 Eh     change       -0.1042750E-03 Eh
   gradient norm :     0.0045770 Eh/α   predicted    -0.1028964E-03 (  -1.32%)
   displ. norm   :     0.2401756 α      lambda       -0.1325904E-03
   maximum displ.:     0.0988729 α      in ANC's #5, #10, #14, ...

........................................................................
.............................. CYCLE   13 ..............................
........................................................................

 iter      E             dE          RMSdq      gap      omega  full diag
   1    -96.1885813 -0.961886E+02  0.373E-02    1.62       0.0  T
   2    -96.1885831 -0.179919E-05  0.218E-02    1.63       1.0  T
   3    -96.1885813  0.173959E-05  0.727E-03    1.63       1.7  T
   4    -96.1885836 -0.229070E-05  0.149E-03    1.63       8.5  T
   5    -96.1885837 -0.557024E-07  0.772E-04    1.63      16.5  T
   6    -96.1885837 -0.439631E-08  0.404E-04    1.63      31.4  T
     SCC iter.                  ...        0 min,  0.028 sec
     gradient                   ...        0 min,  0.089 sec
 * total energy  :   -94.8828201 Eh     change       -0.6268150E-04 Eh
   gradient norm :     0.0054146 Eh/α   predicted    -0.7012663E-04 (  11.88%)
   displ. norm   :     0.0810550 α      lambda       -0.8367169E-04
   maximum displ.:     0.0422258 α      in ANC's #9, #14, #6, ...

........................................................................
.............................. CYCLE   14 ..............................
........................................................................

 iter      E             dE          RMSdq      gap      omega  full diag
   1    -96.1910858 -0.961911E+02  0.209E-02    1.63       0.0  T
   2    -96.1910872 -0.139592E-05  0.123E-02    1.63       1.0  T
   3    -96.1910860  0.119489E-05  0.576E-03    1.63       2.2  T
   4    -96.1910874 -0.140110E-05  0.154E-03    1.63       8.2  T
   5    -96.1910876 -0.122585E-06  0.361E-04    1.63      35.2  T
   6    -96.1910876 -0.156798E-08  0.196E-04    1.63      64.9  T
     SCC iter.                  ...        0 min,  0.059 sec
     gradient                   ...        0 min,  0.051 sec
 * total energy  :   -94.8828750 Eh     change       -0.5486879E-04 Eh
   gradient norm :     0.0049487 Eh/α   predicted    -0.4211146E-04 ( -23.25%)
   displ. norm   :     0.1485775 α      lambda       -0.9795374E-04
   maximum displ.:     0.0755193 α      in ANC's #5, #14, #2, ...

........................................................................
.............................. CYCLE   15 ..............................
........................................................................

 iter      E             dE          RMSdq      gap      omega  full diag
   1    -96.1907714 -0.961908E+02  0.241E-02    1.63       0.0  T
   2    -96.1907722 -0.835644E-06  0.141E-02    1.63       1.0  T
   3    -96.1907708  0.140865E-05  0.550E-03    1.62       2.3  T
   4    -96.1907725 -0.167969E-05  0.110E-03    1.63      11.6  T
   5    -96.1907725 -0.369516E-07  0.468E-04    1.63      27.2  T
   6    -96.1907725 -0.378402E-08  0.248E-04    1.63      51.2  T
     SCC iter.                  ...        0 min,  0.026 sec
     gradient                   ...        0 min,  0.076 sec
 * total energy  :   -94.8829346 Eh     change       -0.5967830E-04 Eh
   gradient norm :     0.0032478 Eh/α   predicted    -0.5006067E-04 ( -16.12%)
   displ. norm   :     0.1560819 α      lambda       -0.5339074E-04
   maximum displ.:     0.0736915 α      in ANC's #5, #14, #10, ...

........................................................................
.............................. CYCLE   16 ..............................
........................................................................

 iter      E             dE          RMSdq      gap      omega  full diag
   1    -96.1904980 -0.961905E+02  0.252E-02    1.63       0.0  T
   2    -96.1904986 -0.626293E-06  0.147E-02    1.63       1.0  T
   3    -96.1904969  0.164541E-05  0.576E-03    1.63       2.2  T
   4    -96.1904989 -0.192709E-05  0.962E-04    1.63      13.2  T
   5    -96.1904989 -0.296954E-07  0.462E-04    1.63      27.5  T
   6    -96.1904989 -0.427086E-08  0.208E-04    1.63      61.0  T
     SCC iter.                  ...        0 min,  0.026 sec
     gradient                   ...        0 min,  0.074 sec
 * total energy  :   -94.8829756 Eh     change       -0.4094832E-04 Eh
   gradient norm :     0.0033192 Eh/α   predicted    -0.2734831E-04 ( -33.21%)
   displ. norm   :     0.2199661 α      lambda       -0.7029554E-04
   maximum displ.:     0.1051175 α      in ANC's #5, #14, #2, ...

........................................................................
.............................. CYCLE   17 ..............................
........................................................................

 iter      E             dE          RMSdq      gap      omega  full diag
   1    -96.1899485 -0.961899E+02  0.381E-02    1.63       0.0  T
   2    -96.1899499 -0.141479E-05  0.221E-02    1.64       1.0  T
   3    -96.1899472  0.275532E-05  0.771E-03    1.63       1.6  T
   4    -96.1899504 -0.322138E-05  0.150E-03    1.64       8.4  T
   5    -96.1899505 -0.928632E-07  0.660E-04    1.64      19.2  T
   6    -96.1899505 -0.882953E-08  0.304E-04    1.64      41.7  T
     SCC iter.                  ...        0 min,  0.063 sec
     gradient                   ...        0 min,  0.051 sec
 * total energy  :   -94.8830250 Eh     change       -0.4941618E-04 Eh
   gradient norm :     0.0029980 Eh/α   predicted    -0.3685070E-04 ( -25.43%)
   displ. norm   :     0.1657457 α      lambda       -0.5029416E-04
   maximum displ.:     0.0704432 α      in ANC's #5, #14, #2, ...

........................................................................
.............................. CYCLE   18 ..............................
........................................................................

 iter      E             dE          RMSdq      gap      omega  full diag
   1    -96.1904570 -0.961905E+02  0.323E-02    1.64       0.0  T
   2    -96.1904580 -0.103909E-05  0.187E-02    1.64       1.0  T
   3    -96.1904559  0.208657E-05  0.670E-03    1.64       1.9  T
   4    -96.1904583 -0.238781E-05  0.134E-03    1.64       9.5  T
   5    -96.1904584 -0.826554E-07  0.501E-04    1.64      25.3  T
   6    -96.1904584 -0.360207E-08  0.256E-04    1.64      49.6  T
     SCC iter.                  ...        0 min,  0.026 sec
     gradient                   ...        0 min,  0.076 sec
 * total energy  :   -94.8830624 Eh     change       -0.3740377E-04 Eh
   gradient norm :     0.0031112 Eh/α   predicted    -0.2584409E-04 ( -30.91%)
   displ. norm   :     0.1963851 α      lambda       -0.5380495E-04
   maximum displ.:     0.0769017 α      in ANC's #5, #2, #14, ...

........................................................................
.............................. CYCLE   19 ..............................
........................................................................

 iter      E             dE          RMSdq      gap      omega  full diag
   1    -96.1907298 -0.961907E+02  0.374E-02    1.64       0.0  T
   2    -96.1907312 -0.138714E-05  0.218E-02    1.64       1.0  T
   3    -96.1907280  0.315688E-05  0.817E-03    1.64       1.6  T
   4    -96.1907316 -0.360204E-05  0.151E-03    1.64       8.4  T
   5    -96.1907317 -0.102977E-06  0.556E-04    1.64      22.8  T
   6    -96.1907317 -0.340012E-08  0.291E-04    1.64      43.7  T
     SCC iter.                  ...        0 min,  0.025 sec
     gradient                   ...        0 min,  0.073 sec
 * total energy  :   -94.8831019 Eh     change       -0.3946276E-04 Eh
   gradient norm :     0.0033692 Eh/α   predicted    -0.2794244E-04 ( -29.19%)
   displ. norm   :     0.1768302 α      lambda       -0.5089486E-04
   maximum displ.:     0.0693928 α      in ANC's #2, #4, #14, ...

........................................................................
.............................. CYCLE   20 ..............................
........................................................................

 iter      E             dE          RMSdq      gap      omega  full diag
   1    -96.1918030 -0.961918E+02  0.349E-02    1.64       0.0  T
   2    -96.1918039 -0.859614E-06  0.205E-02    1.64       1.0  T
   3    -96.1917999  0.393697E-05  0.885E-03    1.64       1.4  T
   4    -96.1918044 -0.451423E-05  0.110E-03    1.64      11.5  T
   5    -96.1918045 -0.396256E-07  0.503E-04    1.64      25.3  T
   6    -96.1918045 -0.223012E-08  0.259E-04    1.64      49.1  T
     SCC iter.                  ...        0 min,  0.025 sec
     gradient                   ...        0 min,  0.074 sec
 * total energy  :   -94.8831362 Eh     change       -0.3428131E-04 Eh
   gradient norm :     0.0029676 Eh/α   predicted    -0.2624508E-04 ( -23.44%)
   displ. norm   :     0.1894632 α      lambda       -0.3809280E-04
   maximum displ.:     0.0790972 α      in ANC's #2, #4, #14, ...
 * RMSD in coord.:     0.4937266 α      energy gain  -0.2645236E-01 Eh

generating ANC from exact Hessian ...
Using Lindh-Hessian (1995)
 Shifting diagonal of input Hessian by    9.8280712129191258E-003
 Lowest  eigenvalues of input Hessian
    0.000000    0.000000    0.000000    0.000000    0.000000    0.000000
    0.010000    0.010155    0.010235    0.010450    0.010728    0.011070
    0.011346    0.011727    0.012054    0.012626    0.013121    0.014074
 Highest eigenvalues
    2.111600    2.170025    2.221658    2.301643    2.349256    2.390204


........................................................................
.............................. CYCLE   21 ..............................
........................................................................

 iter      E             dE          RMSdq      gap      omega  full diag
   1    -96.1910479 -0.961910E+02  0.320E-02    1.64       0.0  T
   2    -96.1910488 -0.935308E-06  0.188E-02    1.64       1.0  T
   3    -96.1910456  0.326840E-05  0.806E-03    1.64       1.6  T
   4    -96.1910493 -0.377109E-05  0.111E-03    1.64      11.5  T
   5    -96.1910494 -0.368881E-07  0.511E-04    1.64      24.9  T
   6    -96.1910494 -0.405825E-08  0.260E-04    1.64      48.8  T
     SCC iter.                  ...        0 min,  0.028 sec
     gradient                   ...        0 min,  0.080 sec
 * total energy  :   -94.8831586 Eh     change       -0.2246212E-04 Eh
   gradient norm :     0.0028291 Eh/α   predicted     0.0000000E+00 (-100.00%)
   displ. norm   :     0.0256827 α      lambda       -0.2120766E-04
   maximum displ.:     0.0111898 α      in ANC's #13, #1, #5, ...

........................................................................
.............................. CYCLE   22 ..............................
........................................................................

 iter      E             dE          RMSdq      gap      omega  full diag
   1    -96.1918741 -0.961919E+02  0.666E-03    1.64       0.0  T
   2    -96.1918742 -0.144100E-06  0.384E-03    1.64       3.3  T
   3    -96.1918742  0.243543E-07  0.113E-03    1.64      11.2  T
   4    -96.1918742 -0.286924E-07  0.466E-04    1.64      27.3  T
   5    -96.1918742 -0.113246E-07  0.141E-04    1.64      89.8  T
     SCC iter.                  ...        0 min,  0.021 sec
     gradient                   ...        0 min,  0.084 sec
 * total energy  :   -94.8831753 Eh     change       -0.1669226E-04 Eh
   gradient norm :     0.0012478 Eh/α   predicted    -0.1096750E-04 ( -34.30%)
   displ. norm   :     0.0860144 α      lambda       -0.2247670E-04
   maximum displ.:     0.0367572 α      in ANC's #13, #1, #5, ...

........................................................................
.............................. CYCLE   23 ..............................
........................................................................

 iter      E             dE          RMSdq      gap      omega  full diag
   1    -96.1927816 -0.961928E+02  0.176E-02    1.64       0.0  T
   2    -96.1927821 -0.527812E-06  0.103E-02    1.64       1.2  T
   3    -96.1927820  0.103619E-06  0.211E-03    1.64       6.0  T
   4    -96.1927822 -0.135552E-06  0.830E-04    1.64      15.3  T
   5    -96.1927822 -0.319689E-07  0.285E-04    1.64      44.6  T
     SCC iter.                  ...        0 min,  0.021 sec
     gradient                   ...        0 min,  0.084 sec
 * total energy  :   -94.8831934 Eh     change       -0.1805122E-04 Eh
   gradient norm :     0.0019464 Eh/α   predicted    -0.1127543E-04 ( -37.54%)
   displ. norm   :     0.0624879 α      lambda       -0.1058583E-04
   maximum displ.:     0.0250264 α      in ANC's #6, #13, #1, ...

........................................................................
.............................. CYCLE   24 ..............................
........................................................................

 iter      E             dE          RMSdq      gap      omega  full diag
   1    -96.1924333 -0.961924E+02  0.109E-02    1.64       0.0  T
   2    -96.1924334 -0.391684E-07  0.643E-03    1.64       2.0  T
   3    -96.1924334  0.188292E-07  0.770E-04    1.64      16.5  T
   4    -96.1924334 -0.340808E-07  0.255E-04    1.64      49.8  T
     SCC iter.                  ...        0 min,  0.017 sec
     gradient                   ...        0 min,  0.071 sec
 * total energy  :   -94.8832076 Eh     change       -0.1426758E-04 Eh
   gradient norm :     0.0017055 Eh/α   predicted    -0.5349608E-05 ( -62.51%)
   displ. norm   :     0.2587545 α      lambda       -0.3826177E-04
   maximum displ.:     0.1121917 α      in ANC's #6, #1, #13, ...

........................................................................
.............................. CYCLE   25 ..............................
........................................................................

 iter      E             dE          RMSdq      gap      omega  full diag
   1    -96.1909630 -0.961910E+02  0.445E-02    1.64       0.0  T
   2    -96.1909636 -0.579704E-06  0.262E-02    1.64       1.0  T
   3    -96.1909635  0.500389E-07  0.233E-03    1.64       5.5  T
   4    -96.1909638 -0.260442E-06  0.965E-04    1.64      13.2  T
   5    -96.1909638 -0.134774E-07  0.504E-04    1.64      25.2  T
     SCC iter.                  ...        0 min,  0.021 sec
     gradient                   ...        0 min,  0.094 sec
 * total energy  :   -94.8832407 Eh     change       -0.3312425E-04 Eh
   gradient norm :     0.0022833 Eh/α   predicted    -0.1971071E-04 ( -40.49%)
   displ. norm   :     0.0469567 α      lambda       -0.9598559E-05
   maximum displ.:     0.0232970 α      in ANC's #6, #1, #4, ...

........................................................................
.............................. CYCLE   26 ..............................
........................................................................

 iter      E             dE          RMSdq      gap      omega  full diag
   1    -96.1911858 -0.961912E+02  0.752E-03    1.64       0.0  T
   2    -96.1911859 -0.356521E-07  0.441E-03    1.64       2.9  T
   3    -96.1911859 -0.111204E-08  0.424E-04    1.64      30.0  T
   4    -96.1911859 -0.533389E-08  0.175E-04    1.64      72.4  T
     SCC iter.                  ...        0 min,  0.017 sec
     gradient                   ...        0 min,  0.079 sec
 * total energy  :   -94.8832493 Eh     change       -0.8571451E-05 Eh
   gradient norm :     0.0018080 Eh/α   predicted    -0.4820193E-05 ( -43.76%)
   displ. norm   :     0.2237024 α      lambda       -0.2842449E-04
   maximum displ.:     0.1065497 α      in ANC's #6, #1, #4, ...

........................................................................
.............................. CYCLE   27 ..............................
........................................................................

 iter      E             dE          RMSdq      gap      omega  full diag
   1    -96.1920526 -0.961921E+02  0.371E-02    1.64       0.0  T
   2    -96.1920531 -0.500733E-06  0.218E-02    1.64       1.0  T
   3    -96.1920524  0.707869E-06  0.381E-03    1.64       3.3  T
   4    -96.1920533 -0.871059E-06  0.107E-03    1.64      11.9  T
   5    -96.1920533 -0.383621E-07  0.511E-04    1.64      24.8  T
   6    -96.1920533 -0.180593E-08  0.210E-04    1.64      60.4  T
     SCC iter.                  ...        0 min,  0.041 sec
     gradient                   ...        0 min,  0.049 sec
 * total energy  :   -94.8832736 Eh     change       -0.2423722E-04 Eh
   gradient norm :     0.0012860 Eh/α   predicted    -0.1453288E-04 ( -40.04%)
   displ. norm   :     0.1280679 α      lambda       -0.7559440E-05
   maximum displ.:     0.0593456 α      in ANC's #1, #6, #13, ...

........................................................................
.............................. CYCLE   28 ..............................
........................................................................

 iter      E             dE          RMSdq      gap      omega  full diag
   1    -96.1917618 -0.961918E+02  0.224E-02    1.64       0.0  T
   2    -96.1917619 -0.130037E-06  0.132E-02    1.64       1.0  T
   3    -96.1917612  0.702070E-06  0.353E-03    1.64       3.6  T
   4    -96.1917620 -0.808517E-06  0.506E-04    1.64      25.1  T
   5    -96.1917620 -0.310823E-08  0.288E-04    1.64      44.1  T
     SCC iter.                  ...        0 min,  0.021 sec
     gradient                   ...        0 min,  0.085 sec
 * total energy  :   -94.8832815 Eh     change       -0.7894583E-05 Eh
   gradient norm :     0.0012242 Eh/α   predicted    -0.3807885E-05 ( -51.77%)
   displ. norm   :     0.1144725 α      lambda       -0.9724532E-05
   maximum displ.:     0.0586346 α      in ANC's #1, #13, #6, ...

........................................................................
.............................. CYCLE   29 ..............................
........................................................................

 iter      E             dE          RMSdq      gap      omega  full diag
   1    -96.1922068 -0.961922E+02  0.229E-02    1.64       0.0  T
   2    -96.1922071 -0.292484E-06  0.134E-02    1.64       1.0  T
   3    -96.1922057  0.142092E-05  0.511E-03    1.64       2.5  T
   4    -96.1922073 -0.161476E-05  0.641E-04    1.64      19.8  T
   5    -96.1922073 -0.115840E-07  0.314E-04    1.64      40.4  T
   6    -96.1922073 -0.518824E-09  0.145E-04    1.64      87.3  T
     SCC iter.                  ...        0 min,  0.025 sec
     gradient                   ...        0 min,  0.073 sec
 * total energy  :   -94.8832916 Eh     change       -0.1012977E-04 Eh
   gradient norm :     0.0007966 Eh/α   predicted    -0.4890778E-05 ( -51.72%)
   displ. norm   :     0.1073783 α      lambda       -0.6187401E-05
   maximum displ.:     0.0557226 α      in ANC's #1, #13, #2, ...

........................................................................
.............................. CYCLE   30 ..............................
........................................................................

 iter      E             dE          RMSdq      gap      omega  full diag
   1    -96.1921488 -0.961921E+02  0.227E-02    1.65       0.0  T
   2    -96.1921489 -0.177085E-06  0.133E-02    1.65       1.0  T
   3    -96.1921478  0.117164E-05  0.466E-03    1.64       2.7  T
   4    -96.1921491 -0.133120E-05  0.528E-04    1.65      24.0  T
   5    -96.1921491 -0.483959E-08  0.290E-04    1.65      43.7  T
   6    -96.1921491 -0.626414E-09  0.125E-04    1.65     101.9  T
     SCC iter.                  ...        0 min,  0.025 sec
     gradient                   ...        0 min,  0.079 sec
 * total energy  :   -94.8832982 Eh     change       -0.6577431E-05 Eh
   gradient norm :     0.0009160 Eh/α   predicted    -0.3110824E-05 ( -52.70%)
   displ. norm   :     0.0802978 α      lambda       -0.5306234E-05
   maximum displ.:     0.0417827 α      in ANC's #1, #12, #8, ...

........................................................................
.............................. CYCLE   31 ..............................
........................................................................

 iter      E             dE          RMSdq      gap      omega  full diag
   1    -96.1925334 -0.961925E+02  0.171E-02    1.65       0.0  T
   2    -96.1925337 -0.265393E-06  0.100E-02    1.65       1.3  T
   3    -96.1925331  0.546687E-06  0.331E-03    1.65       3.8  T
   4    -96.1925338 -0.626392E-06  0.661E-04    1.65      19.2  T
   5    -96.1925338 -0.175706E-07  0.254E-04    1.65      50.1  T
     SCC iter.                  ...        0 min,  0.021 sec
     gradient                   ...        0 min,  0.085 sec
 * total energy  :   -94.8833026 Eh     change       -0.4445665E-05 Eh
   gradient norm :     0.0008477 Eh/α   predicted    -0.2661360E-05 ( -40.14%)
   displ. norm   :     0.0616077 α      lambda       -0.2943928E-05
   maximum displ.:     0.0342050 α      in ANC's #1, #2, #4, ...

   *** GEOMETRY OPTIMIZATION CONVERGED AFTER 31 ITERATIONS ***

------------------------------------------------------------------------
 total energy gain   :        -0.0266188 Eh      -16.7036 kcal/mol
 total RMSD          :         0.5228644 a0        0.2767 Å
 total power (kW/mol):        -2.2544417 (step)  -15.5535 (real)
------------------------------------------------------------------------

 ANCopt (total)                0 d,  0 h,  0 min,  4.494 sec
 optimizer setup                ...        0 min,  0.000 sec (  0.002%)
 model hessian                  ...        0 min,  0.054 sec (  1.206%)
 ANC generation                 ...        0 min,  0.036 sec (  0.795%)
 coordinate transformation      ...        0 min,  0.001 sec (  0.023%)
 single point calculation       ...        0 min,  4.380 sec ( 97.479%)
 optimization log               ...        0 min,  0.014 sec (  0.308%)
 hessian update                 ...        0 min,  0.001 sec (  0.022%)
 rational function              ...        0 min,  0.003 sec (  0.076%)

================
 final structure:
================
62
 xtb: 6.7.1 (edcfbbe)
C           -7.26369055850267        2.37710839006069       -1.79772525226560
C           -6.26809362942183        2.98132770177679       -0.85182734117392
C           -5.03526361081696        2.16488580329789       -0.61168959405792
C           -3.79008723963852        2.71417867861684       -0.71050479889441
C           -3.54808866627959        4.13853099784639       -1.09548970004674
C           -2.65761634171287        1.87652237978751       -0.46934399907678
C           -1.32019445571886        2.28173420286031       -0.56075335587207
N           -0.30112724652860        1.49264282502457       -0.32050318292428
C           -0.58549604641473        0.22968813398729        0.03366566361148
N            0.40758274407535       -0.64190786193696        0.30548830861595
C            1.78604825564850       -0.50085287379468        0.26552351729317
N            2.43425329743782       -1.61384119620930        0.59138729193691
C            3.75193270658434       -1.62203220557317        0.57403500192848
C            4.53722862391067       -0.51572002667522        0.22579581619151
C            3.83281371138043        0.65523250044042       -0.09675075691893
C            2.45604298053562        0.67302350791395       -0.07935573832828
N            5.92006629321223       -0.52729901100800        0.25828622835221
C            6.62329191092940       -1.64992307641483        0.84256531653175
C            8.00550456758743       -1.17798881336914        1.32484940203968
N            8.79185190248246       -0.55029002784466        0.28287303983228
C            8.04020020910720        0.53567210573512       -0.31506872240342
C            6.66972798230392        0.07622846643431       -0.82761295767241
N           -1.81271140743795       -0.27443336554058        0.15155406248081
C           -2.84570067189687        0.52225378754280       -0.09141761241926
N           -4.09811939737099        0.01045922321900        0.02784182224579
C           -4.30536629729488       -1.37601950400750        0.43314519698073
C           -3.64717368149237       -2.41052651170389       -0.50420414149087
C           -2.80975784492821       -3.31716484752731        0.40237509352498
C           -3.45672730572383       -3.17398116765814        1.77721089855348
C           -3.78568967156330       -1.68690039393456        1.84436766979492
C           -5.24129470752367        0.77004983184245       -0.23012993232296
O           -6.34211773337867        0.25887726795275       -0.11098847446695
O           -6.43110716762598        4.05979447589279       -0.33048422975000
H           -7.69991463453947        1.50342139882300       -1.31688033296896
H           -8.04140138150041        3.09966271128499       -2.02895736309484
H           -6.76867448441737        2.04407531208589       -2.70709253370136
H           -2.99920873953132        4.64397105402534       -0.30226964001830
H           -4.47906781950919        4.67090858038266       -1.25289475543951
H           -2.95065496538059        4.18487658876290       -2.00567778678447
H           -1.05905824827794        3.29318734201805       -0.84032419218042
H            0.10344580251829       -1.57010451469230        0.57444876115052
H            4.19204769021188       -2.57242876246265        0.84037379004749
H            4.36623365525980        1.56071810746802       -0.34330494874941
H            1.89821491123873        1.56153607774474       -0.31799519657548
H            6.06201637255319       -2.02054570203044        1.70027043137692
H            6.74632239881631       -2.47041122893796        0.11448094590641
H            8.56372952364757       -2.02499865928365        1.72808263176816
H            7.86895260894555       -0.43880873056261        2.11929754734867
H            9.02343342632089       -1.23695558752176       -0.43106469627423
H            7.90089197635002        1.30093320902246        0.45355288904714
H            8.62270951669487        0.96177166501972       -1.13415523775430
H            6.81831613098952       -0.66264341425319       -1.63579150847057
H            6.12136386823454        0.92061547480167       -1.24044236761047
H           -5.39071001441977       -1.50478035937782        0.41363300832161
H           -3.03326289165637       -1.92562233084613       -1.26013266399951
H           -4.42054538899918       -2.98442620774343       -1.01479289922546
H           -1.78597391002362       -2.94700501623110        0.44436181035073
H           -2.79348922190921       -4.34791954971757        0.05177894852810
H           -2.80027117992120       -3.49213350629242        2.58549210845371
H           -4.37481169587352       -3.76194049193826        1.82337892340783
H           -4.52381614608966       -1.44625861172007        2.60793136383091
H           -2.87773866365317       -1.11782424485911        2.03757842347647

 Bond Distances (Angstroems)
 ---------------------------
C1-C2=1.5003         C1-H34=1.0885        C1-H35=1.0865        C1-H36=1.0876        C2-C1=1.5003         C2-C3=1.4980         
C2-O33=1.2089        C3-C2=1.4980         C3-C4=1.3645         C3-C31=1.4607        C4-C3=1.3645         C4-C5=1.4952         
C4-C6=1.4291         C5-C4=1.4952         C5-H37=1.0890        C5-H38=1.0839        C5-H39=1.0897        C6-C4=1.4291         
C6-C7=1.4004         C6-C24=1.4185        C7-C6=1.4004         C7-N8=1.3111         C7-H40=1.0814        N8-C7=1.3111         
N8-C9=1.3421         C9-N8=1.3421         C9-N10=1.3490        C9-N23=1.3320        N10-C9=1.3490        N10-C11=1.3862       
N10-H41=1.0131       C11-N10=1.3862       C11-N12=1.3286       C11-C16=1.3949       N12-C11=1.3286       N12-C13=1.3178       
C13-N12=1.3178       C13-C14=1.4007       C13-H42=1.0807       C14-C13=1.4007       C14-C15=1.4041       C14-N17=1.3833       
C15-C14=1.4041       C15-C16=1.3770       C15-H43=1.0795       C16-C11=1.3949       C16-C15=1.3770       C16-H44=1.0759       
N17-C14=1.3833       N17-C18=1.4478       N17-C22=1.4510       C18-N17=1.4478       C18-C19=1.5381       C18-H45=1.0900       
C18-H46=1.1038       C19-C18=1.5381       C19-N20=1.4485       C19-H47=1.0916       C19-H48=1.0937       N20-C19=1.4485       
N20-C21=1.4498       N20-H49=1.0173       C21-N20=1.4498       C21-C22=1.5336       C21-H50=1.0935       C21-H51=1.0917       
C22-N17=1.4510       C22-C21=1.5336       C22-H52=1.1051       C22-H53=1.0882       N23-C9=1.3320        N23-C24=1.3270       
C24-C6=1.4185        C24-N23=1.3270       C24-N25=1.3582       N25-C24=1.3582       N25-C26=1.4593       N25-C31=1.3966       
C26-N25=1.4593       C26-C27=1.5434       C26-C30=1.5357       C26-H54=1.0931       C27-C26=1.5434       C27-C28=1.5314       
C27-H55=1.0879       C27-H56=1.0900       C28-C27=1.5314       C28-C29=1.5262       C28-H57=1.0895       C28-H58=1.0889       
C29-C28=1.5262       C29-C30=1.5245       C29-H59=1.0888       C29-H60=1.0912       C30-C26=1.5357       C30-C29=1.5245       
C30-H61=1.0889       C30-H62=1.0888       C31-C3=1.4607        C31-N25=1.3966       C31-O32=1.2196       O32-C31=1.2196       
O33-C2=1.2089        H34-C1=1.0885        H35-C1=1.0865        H36-C1=1.0876        H37-C5=1.0890        H38-C5=1.0839        
H39-C5=1.0897        H40-C7=1.0814        H41-N10=1.0131       H42-C13=1.0807       H43-C15=1.0795       H44-C16=1.0759       
H45-C18=1.0900       H46-C18=1.1038       H47-C19=1.0916       H48-C19=1.0937       H49-N20=1.0173       H50-C21=1.0935       
H51-C21=1.0917       H52-C22=1.1051       H53-C22=1.0882       H54-C26=1.0931       H55-C27=1.0879       H56-C27=1.0900       
H57-C28=1.0895       H58-C28=1.0889       H59-C29=1.0888       H60-C29=1.0912       H61-C30=1.0889       H62-C30=1.0888       
 C  H  Rav=1.0892 sigma=0.0060  Rmin=1.0759  Rmax=1.1051    27
 C  C  Rav=1.4672 sigma=0.0625  Rmin=1.3645  Rmax=1.5434    19
 N  H  Rav=1.0152 sigma=0.0021  Rmin=1.0131  Rmax=1.0173     2
 N  C  Rav=1.3805 sigma=0.0531  Rmin=1.3111  Rmax=1.4593    16
 O  C  Rav=1.2142 sigma=0.0053  Rmin=1.2089  Rmax=1.2196     2

 selected bond angles (degree)
 --------------------
H34-C1-C2=108.10               H35-C1-C2=109.96               H35-C1-H34=109.94              H36-C1-C2=110.39               
H36-C1-H34=107.82              H36-C1-H35=110.58              C3-C2-C1=115.32                O33-C2-C1=122.80               
O33-C2-C3=121.87               C4-C3-C2=121.33                C31-C3-C2=116.50               C31-C3-C4=122.14               
C5-C4-C3=123.35                C6-C4-C3=118.36                C6-C4-C5=118.27                H37-C5-C4=109.64               
H38-C5-C4=111.49               H38-C5-H37=108.10              H39-C5-C4=110.14               H39-C5-H37=108.20              
H39-C5-H38=109.19              C7-C6-C4=125.18                C24-C6-C4=119.97               C24-C6-C7=114.85               
N8-C7-C6=123.79                H40-C7-C6=121.21               H40-C7-N8=115.00               C9-N8-C7=116.75                
N10-C9-N8=120.34               N23-C9-N8=125.08               N23-C9-N10=114.58              C11-N10-C9=131.34              
H41-N10-C9=115.12              H41-N10-C11=113.54             

 selected dihedral angles (degree)
 ---------------------------------
C3-C2-C1-H34= 68.76           C3-C2-C1-H35=188.78           C3-C2-C1-H36=311.05           O33-C2-C1-H34=247.70          
O33-C2-C1-H35=  7.72          O33-C2-C1-H36=129.99          C4-C3-C2-C1=130.32            C4-C3-C2-O33=311.37           
C31-C3-C2-C1=308.57           C31-C3-C2-O33=129.61          C5-C4-C3-C2=358.29            C5-C4-C3-C31=180.14           
C6-C4-C3-C2=180.05            C6-C4-C3-C31=  1.91           H37-C5-C4-C3=121.34           H37-C5-C4-C6=299.58           
H38-C5-C4-C3=  1.67           H38-C5-C4-C6=179.91           H39-C5-C4-C3=240.30           H39-C5-C4-C6= 58.53           
C7-C6-C4-C3=178.49            C7-C6-C4-C5=  0.17            C24-C6-C4-C3=357.81           C24-C6-C4-C5=179.49           
N8-C7-C6-C4=179.30            N8-C7-C6-C24=359.95           H40-C7-C6-C4=359.39           H40-C7-C6-C24=180.04          
C9-N8-C7-C6=359.88            C9-N8-C7-H40=179.80           N10-C9-N8-C7=180.40           N23-C9-N8-C7=  0.29           
C11-N10-C9-N8=358.34          C11-N10-C9-N23=178.44         H41-N10-C9-N8=179.35          H41-N10-C9-N23=359.45         
           -------------------------------------------------
          |                Final Singlepoint                |
           -------------------------------------------------

          ...................................................
          :                      SETUP                      :
          :.................................................:
          :  # basis functions                 161          :
          :  # atomic orbitals                 161          :
          :  # shells                           95          :
          :  # electrons                       172          :
          :  max. iterations                   250          :
          :  Hamiltonian                  GFN2-xTB          :
          :  restarted?                      false          :
          :  GBSA solvation                  false          :
          :  PC potential                    false          :
          :  electronic temp.          300.0000000     K    :
          :  accuracy                    1.0000000          :
          :  -> integral cutoff          0.2500000E+02      :
          :  -> integral neglect         0.1000000E-07      :
          :  -> SCF convergence          0.1000000E-05 Eh   :
          :  -> wf. convergence          0.1000000E-03 e    :
          :  Broyden damping             0.4000000          :
          :  net charge                          0          :
          :  unpaired electrons                  0          :
          ...................................................

 iter      E             dE          RMSdq      gap      omega  full diag
   1    -96.1925338 -0.961925E+02  0.135E-04    1.65       0.0  T
   2    -96.1925338 -0.179355E-09  0.876E-05    1.65     145.0  T
   3    -96.1925338 -0.922569E-10  0.593E-05    1.65     214.1  T

   *** convergence criteria satisfied after 3 iterations ***

         #    Occupation            Energy/Eh            Energy/eV
      -------------------------------------------------------------
         1        2.0000           -0.7052598             -19.1911
       ...           ...                  ...                  ...
        80        2.0000           -0.4015117             -10.9257
        81        2.0000           -0.3935794             -10.7098
        82        2.0000           -0.3873062             -10.5391
        83        2.0000           -0.3783319             -10.2949
        84        2.0000           -0.3746204             -10.1939
        85        2.0000           -0.3737956             -10.1715
        86        2.0000           -0.3516428              -9.5687 (HOMO)
        87                         -0.2911207              -7.9218 (LUMO)
        88                         -0.2612016              -7.1077
        89                         -0.2453197              -6.6755
        90                         -0.2376103              -6.4657
        91                         -0.2283833              -6.2146
       ...                                ...                  ...
       161                          0.6913082              18.8115
      -------------------------------------------------------------
                  HL-Gap            0.0605221 Eh            1.6469 eV
             Fermi-level           -0.3213817 Eh           -8.7452 eV

 SCC (total)                   0 d,  0 h,  0 min,  0.101 sec
 SCC setup                      ...        0 min,  0.001 sec (  0.605%)
 Dispersion                     ...        0 min,  0.001 sec (  0.670%)
 classical contributions        ...        0 min,  0.000 sec (  0.297%)
 integral evaluation            ...        0 min,  0.013 sec ( 12.682%)
 iterations                     ...        0 min,  0.013 sec ( 12.823%)
 molecular gradient             ...        0 min,  0.073 sec ( 72.614%)
 printout                       ...        0 min,  0.000 sec (  0.302%)

         :::::::::::::::::::::::::::::::::::::::::::::::::::::
         ::                     SUMMARY                     ::
         :::::::::::::::::::::::::::::::::::::::::::::::::::::
         :: total energy             -94.883302605736 Eh    ::
         :: gradient norm              0.000846842772 Eh/a0 ::
         :: HOMO-LUMO gap              1.646890662274 eV    ::
         ::.................................................::
         :: SCC energy               -96.192740884069 Eh    ::
         :: -> isotropic ES            0.109689362716 Eh    ::
         :: -> anisotropic ES          0.005998397150 Eh    ::
         :: -> anisotropic XC          0.053377747685 Eh    ::
         :: -> dispersion             -0.071467944793 Eh    ::
         :: repulsion energy           1.309438278334 Eh    ::
         :: add. restraining           0.000000000000 Eh    ::
         :: total charge              -0.000000000000 e     ::
         :::::::::::::::::::::::::::::::::::::::::::::::::::::

           -------------------------------------------------
          |                Property Printout                |
           -------------------------------------------------

    * Orbital Energies and Occupations

         #    Occupation            Energy/Eh            Energy/eV
      -------------------------------------------------------------
         1        2.0000           -0.7052598             -19.1911
       ...           ...                  ...                  ...
        74        2.0000           -0.4349217             -11.8348
        75        2.0000           -0.4316783             -11.7466
        76        2.0000           -0.4266809             -11.6106
        77        2.0000           -0.4213717             -11.4661
        78        2.0000           -0.4176918             -11.3660
        79        2.0000           -0.4082385             -11.1087
        80        2.0000           -0.4015117             -10.9257
        81        2.0000           -0.3935794             -10.7098
        82        2.0000           -0.3873062             -10.5391
        83        2.0000           -0.3783319             -10.2949
        84        2.0000           -0.3746204             -10.1939
        85        2.0000           -0.3737956             -10.1715
        86        2.0000           -0.3516428              -9.5687 (HOMO)
        87                         -0.2911207              -7.9218 (LUMO)
        88                         -0.2612016              -7.1077
        89                         -0.2453197              -6.6755
        90                         -0.2376103              -6.4657
        91                         -0.2283833              -6.2146
        92                         -0.2052359              -5.5848
        93                         -0.1592866              -4.3344
        94                         -0.1032276              -2.8090
        95                         -0.0900976              -2.4517
        96                         -0.0188702              -0.5135
        97                         -0.0109592              -0.2982
       ...                                ...                  ...
       161                          0.6913082              18.8115
      -------------------------------------------------------------
                  HL-Gap            0.0605221 Eh            1.6469 eV
             Fermi-level           -0.3213817 Eh           -8.7452 eV

     #   Z          covCN         q      C6AA      α(0)
     1   6 C        3.754    -0.141    23.281     6.880
     2   6 C        2.817     0.252    22.774     7.819
     3   6 C        2.964    -0.068    29.687     8.937
     4   6 C        2.957     0.034    27.243     8.561
     5   6 C        3.758    -0.115    22.751     6.800
     6   6 C        2.979    -0.053    29.301     8.879
     7   6 C        2.925     0.077    26.291     8.409
     8   7 N        1.837    -0.281    28.146     7.862
     9   6 C        2.883     0.239    23.027     7.867
    10   7 N        2.727    -0.135    23.916     7.263
    11   6 C        2.891     0.142    24.911     8.183
    12   7 N        1.853    -0.258    27.558     7.780
    13   6 C        2.906     0.031    27.305     8.568
    14   6 C        2.905     0.046    26.960     8.514
    15   6 C        2.935    -0.038    28.939     8.823
    16   6 C        2.910    -0.061    29.507     8.907
    17   7 N        2.738    -0.121    23.632     7.220
    18   6 C        3.754     0.000    20.634     6.477
    19   6 C        3.757     0.005    20.548     6.463
    20   7 N        2.678    -0.253    26.578     7.657
    21   6 C        3.757     0.005    20.551     6.463
    22   6 C        3.755     0.003    20.587     6.470
    23   7 N        1.862    -0.309    28.863     7.963
    24   6 C        2.917     0.167    24.403     8.101
    25   7 N        2.749    -0.070    22.603     7.061
    26   6 C        3.822     0.035    19.963     6.358
    27   6 C        3.819    -0.063    21.692     6.628
    28   6 C        3.827    -0.060    21.626     6.617
    29   6 C        3.830    -0.058    21.593     6.612
    30   6 C        3.827    -0.065    21.724     6.632
    31   6 C        2.777     0.264    22.548     7.777
    32   8 O        0.859    -0.440    22.497     6.359
    33   8 O        0.857    -0.365    20.992     6.143
    34   1 H        0.925     0.106     1.734     2.059
    35   1 H        0.925     0.065     2.139     2.287
    36   1 H        0.925     0.057     2.230     2.335
    37   1 H        0.925     0.064     2.155     2.296
    38   1 H        0.925     0.072     2.064     2.247
    39   1 H        0.925     0.053     2.279     2.361
    40   1 H        0.925     0.050     2.325     2.384
    41   1 H        0.860     0.210     1.058     1.611
    42   1 H        0.926     0.034     2.527     2.486
    43   1 H        0.926     0.036     2.502     2.474
    44   1 H        0.926     0.070     2.088     2.260
    45   1 H        0.925     0.043     2.405     2.425
    46   1 H        0.923     0.017     2.774     2.604
    47   1 H        0.924     0.040     2.454     2.450
    48   1 H        0.924     0.048     2.344     2.394
    49   1 H        0.860     0.137     1.495     1.915
    50   1 H        0.924     0.048     2.340     2.392
    51   1 H        0.924     0.039     2.462     2.454
    52   1 H        0.922     0.017     2.774     2.605
    53   1 H        0.925     0.043     2.403     2.424
    54   1 H        0.924     0.081     1.970     2.195
    55   1 H        0.925     0.043     2.414     2.430
    56   1 H        0.925     0.039     2.457     2.451
    57   1 H        0.925     0.042     2.419     2.432
    58   1 H        0.925     0.035     2.513     2.479
    59   1 H        0.925     0.036     2.501     2.473
    60   1 H        0.924     0.038     2.478     2.462
    61   1 H        0.925     0.038     2.480     2.463
    62   1 H        0.925     0.052     2.298     2.370

 Mol. C6AA /au·bohr⁶  :      42301.285633
 Mol. C8AA /au·bohr⁸  :     981989.762324
 Mol. α(0) /au        :        315.273408


Wiberg/Mayer (AO) data.
largest (>0.10) Wiberg bond orders for each atom

 ---------------------------------------------------------------------------
     #   Z sym  total        # sym  WBO       # sym  WBO       # sym  WBO
 ---------------------------------------------------------------------------
     1   6 C    3.990 --     2 C    1.013    35 H    0.982    36 H    0.965
                            34 H    0.936
     2   6 C    3.919 --    33 O    1.832     1 C    1.013     3 C    0.995
     3   6 C    3.962 --     4 C    1.581    31 C    1.081     2 C    0.995
     4   6 C    3.977 --     3 C    1.581     6 C    1.175     5 C    1.034
     5   6 C    3.991 --     4 C    1.034    38 H    0.977    39 H    0.965
                            37 H    0.962
     6   6 C    3.974 --     7 C    1.331    24 C    1.218     4 C    1.175
     7   6 C    3.956 --     8 N    1.493     6 C    1.331    40 H    0.958
     8   7 N    3.036 --     7 C    1.493     9 C    1.265
     9   6 C    3.957 --    23 N    1.318     8 N    1.265    10 N    1.221
    10   7 N    3.502 --     9 C    1.221    11 C    1.089    41 H    0.917
    11   6 C    3.955 --    12 N    1.364    16 C    1.325    10 N    1.089
    12   7 N    3.047 --    13 C    1.449    11 C    1.364
    13   6 C    3.979 --    12 N    1.449    14 C    1.333    42 H    0.959
                            16 C    0.100
    14   6 C    3.962 --    13 C    1.333    15 C    1.326    17 N    1.131
    15   6 C    3.990 --    16 C    1.494    14 C    1.326    43 H    0.964
    16   6 C    3.982 --    15 C    1.494    11 C    1.325    44 H    0.958
                            13 C    0.100
    17   7 N    3.335 --    14 C    1.131    18 C    1.000    22 C    0.990
    18   6 C    3.982 --    17 N    1.000    19 C    0.985    45 H    0.970
                            46 H    0.964
    19   6 C    3.986 --    20 N    1.021    18 C    0.985    47 H    0.974
                            48 H    0.972
    20   7 N    3.077 --    19 C    1.021    21 C    1.019    49 H    0.956
    21   6 C    3.987 --    20 N    1.019    22 C    0.989    51 H    0.974
                            50 H    0.971
    22   6 C    3.980 --    17 N    0.990    21 C    0.989    53 H    0.968
                            52 H    0.964
    23   7 N    3.026 --    24 C    1.361     9 C    1.318
    24   6 C    3.965 --    23 N    1.361     6 C    1.218    25 N    1.200
    25   7 N    3.597 --    24 C    1.200    31 C    1.104    26 C    0.957
                            32 O    0.137
    26   6 C    3.947 --    30 C    0.983    27 C    0.980    25 N    0.957
                            54 H    0.956
    27   6 C    3.995 --    28 C    1.006    56 H    0.981    26 C    0.980
                            55 H    0.977
    28   6 C    3.996 --    29 C    1.007    27 C    1.006    58 H    0.980
                            57 H    0.976
    29   6 C    3.996 --    28 C    1.007    30 C    1.007    60 H    0.979
                            59 H    0.979
    30   6 C    3.994 --    29 C    1.007    26 C    0.983    61 H    0.979
                            62 H    0.972
    31   6 C    3.951 --    32 O    1.646    25 N    1.104     3 C    1.081
    32   8 O    1.978 --    31 C    1.646    25 N    0.137
    33   8 O    2.058 --     2 C    1.832
    34   1 H    0.988 --     1 C    0.936
    35   1 H    0.995 --     1 C    0.982
    36   1 H    0.996 --     1 C    0.965
    37   1 H    0.994 --     5 C    0.962
    38   1 H    0.994 --     5 C    0.977
    39   1 H    0.995 --     5 C    0.965
    40   1 H    0.997 --     7 C    0.958
    41   1 H    0.956 --    10 N    0.917
    42   1 H    0.998 --    13 C    0.959
    43   1 H    0.998 --    15 C    0.964
    44   1 H    0.995 --    16 C    0.958
    45   1 H    0.998 --    18 C    0.970
    46   1 H    0.997 --    18 C    0.964
    47   1 H    0.998 --    19 C    0.974
    48   1 H    0.998 --    19 C    0.972
    49   1 H    0.981 --    20 N    0.956
    50   1 H    0.998 --    21 C    0.971
    51   1 H    0.998 --    21 C    0.974
    52   1 H    0.997 --    22 C    0.964
    53   1 H    0.998 --    22 C    0.968
    54   1 H    0.993 --    26 C    0.956
    55   1 H    0.998 --    27 C    0.977
    56   1 H    0.998 --    27 C    0.981
    57   1 H    0.998 --    28 C    0.976
    58   1 H    0.998 --    28 C    0.980
    59   1 H    0.998 --    29 C    0.979
    60   1 H    0.998 --    29 C    0.979
    61   1 H    0.998 --    30 C    0.979
    62   1 H    0.997 --    30 C    0.972
 ---------------------------------------------------------------------------

Topologies differ in total number of bonds
Writing topology from bond orders to xtbtopo.mol

molecular dipole:
                 x           y           z       tot (Debye)
 q only:        2.961      -1.034      -0.515
   full:        2.712      -0.889      -1.038       7.719
molecular quadrupole (traceless):
                xx          xy          yy          xz          yz          zz
 q only:      -11.113      17.207       2.575       7.652      -8.340       8.538
  q+dip:      -20.649      12.861       6.967       2.211      -7.678      13.681
   full:      -23.431      12.086       4.522       1.950      -6.648      18.909

           -------------------------------------------------
          |                Geometry Summary                 |
           -------------------------------------------------

      molecular mass/u    :      447.5336757
   center of mass at/Å    :       -0.3653851       0.1957767       0.0101376
  moments of inertia/u·Å² :        0.1675312E+04   0.1084654E+05   0.1226495E+05
rotational constants/cm⁻¹ :        0.1006238E-01   0.1554195E-02   0.1374456E-02

 * 61 selected distances

     #   Z          #   Z                                           value/Å
     3   6 C        4   6 C                                       1.3645335
     4   6 C        6   6 C                                       1.4290967
     6   6 C        7   6 C                                       1.4004463
     7   6 C        8   7 N                                       1.3110620
     8   7 N        9   6 C                                       1.3421461
     9   6 C       10   7 N                                       1.3489896
    10   7 N       11   6 C                                       1.3862400
    11   6 C       12   7 N                                       1.3285708
    12   7 N       13   6 C                                       1.3178192
    13   6 C       14   6 C                                       1.4006738
    14   6 C       15   6 C                                       1.4040537
    11   6 C       16   6 C                                       1.3949268
    15   6 C       16   6 C                                       1.3769957
    14   6 C       17   7 N                                       1.3832679
    17   7 N       18   6 C                                       1.4478237
    18   6 C       19   6 C                                       1.5381262 (max)
    19   6 C       20   7 N                                       1.4484692
    20   7 N       21   6 C                                       1.4497685
    17   7 N       22   6 C                                       1.4510050
    21   6 C       22   6 C                                       1.5336181
     9   6 C       23   7 N                                       1.3319512
     6   6 C       24   6 C                                       1.4185372
    23   7 N       24   6 C                                       1.3269562
    24   6 C       25   7 N                                       1.3582008
    25   7 N       26   6 C                                       1.4592963
    27   6 C       28   6 C                                       1.5313865
    28   6 C       29   6 C                                       1.5261864
    26   6 C       30   6 C                                       1.5356627
    29   6 C       30   6 C                                       1.5245117
    25   7 N       31   6 C                                       1.3965592
    31   6 C       32   8 O                                       1.2195506
     2   6 C       33   8 O                                       1.2089098
     1   6 C       34   1 H                                       1.0885001
     1   6 C       35   1 H                                       1.0864563
     1   6 C       36   1 H                                       1.0876125
     5   6 C       37   1 H                                       1.0890074
     5   6 C       38   1 H                                       1.0839394
     5   6 C       39   1 H                                       1.0897328
     7   6 C       40   1 H                                       1.0813832
    10   7 N       41   1 H                                       1.0131082 (min)
    13   6 C       42   1 H                                       1.0806902
    15   6 C       43   1 H                                       1.0794583
[...]
    4    1 H      34-62

           -------------------------------------------------
          |                Calculation Setup                |
           -------------------------------------------------

          program call               : xtb /rds/general/user/hgt20/home/callum/QDESCP/Palbociclib_rdkit_conf_9/Palbociclib_rdkit_conf_9.xyz --acc 1 --gfn 2 --chrg 0 --uhf 2 --etemp 300 --input /rds/general/user/hgt20/home/callum/QDESCP/Palbociclib_rdkit_conf_9/Palbociclib_rdkit_conf_9_xtb.inp -P 1
          hostname                   : login-c
          coordinate file            : /rds/general/user/hgt20/home/callum/QDESCP/Palbociclib_rdkit_conf_9/Palbociclib_rdkit_conf_9.xyz
          omp threads                :                     1


           -------------------------------------------------
          |                 G F N 2 - x T B                 |
           -------------------------------------------------

        Reference                      10.1021/acs.jctc.8b01176
      * Hamiltonian:
        H0-scaling (s, p, d)           1.850000    2.230000    2.230000
        zeta-weighting                 0.500000
      * Dispersion:
        s8                             2.700000
        a1                             0.520000
        a2                             5.000000
        s9                             5.000000
      * Repulsion:
        kExp                           1.500000    1.000000
        rExp                           1.000000
      * Coulomb:
        alpha                          2.000000
        third order                    shell-resolved
        anisotropic                    true
        a3                             3.000000
        a5                             4.000000
        cn-shift                       1.200000
        cn-exp                         4.000000
        max-rad                        5.000000


          ...................................................
          :                      SETUP                      :
          :.................................................:
          :  # basis functions                 161          :
          :  # atomic orbitals                 161          :
          :  # shells                           95          :
          :  # electrons                       172          :
          :  max. iterations                   250          :
          :  Hamiltonian                  GFN2-xTB          :
          :  restarted?                      false          :
          :  GBSA solvation                  false          :
          :  PC potential                    false          :
          :  electronic temp.          300.0000000     K    :
          :  accuracy                    1.0000000          :
          :  -> integral cutoff          0.2500000E+02      :
          :  -> integral neglect         0.1000000E-07      :
          :  -> SCF convergence          0.1000000E-05 Eh   :
          :  -> wf. convergence          0.1000000E-03 e    :
          :  Broyden damping             0.4000000          :
          :  net charge                          0          :
          :  unpaired electrons                  2          :
          ...................................................

 iter      E             dE          RMSdq      gap      omega  full diag
   1    -95.8331063 -0.958331E+02  0.370E+00    0.88       0.0  T
   2    -95.6903601  0.142746E+00  0.278E+00    0.45       1.0  T
   3    -95.7945125 -0.104152E+00  0.197E+00    0.86       1.0  T
   4    -96.0492641 -0.254752E+00  0.108E+00    0.24       1.0  T
   5    -96.0411155  0.814864E-02  0.841E-01    0.50       1.0  T
   6    -96.0424422 -0.132678E-02  0.704E-01    0.57       1.0  T
   7    -96.0707168 -0.282746E-01  0.495E-01    0.36       1.0  T
   8    -96.0922622 -0.215454E-01  0.341E-01    0.51       1.0  T
   9    -96.1037078 -0.114456E-01  0.196E-01    0.39       1.0  T
  10    -96.1041563 -0.448528E-03  0.106E-01    0.38       1.0  T
  11    -96.1011654  0.299086E-02  0.159E-01    0.33       1.0  T
  12    -96.1053872 -0.422179E-02  0.593E-02    0.36       1.0  T
  13    -96.1053111  0.760780E-04  0.492E-02    0.36       1.0  T
  14    -96.1056499 -0.338780E-03  0.263E-02    0.35       1.0  T
  15    -96.1057204 -0.704812E-04  0.102E-02    0.35       1.3  T
  16    -96.1057303 -0.987308E-05  0.240E-03    0.35       5.3  T
  17    -96.1057301  0.180385E-06  0.175E-03    0.35       7.3  T
  18    -96.1057303 -0.229282E-06  0.126E-03    0.35      10.1  T
  19    -96.1057305 -0.204887E-06  0.183E-04    0.35      69.4  T
  20    -96.1057305  0.911015E-09  0.180E-04    0.35      70.6  T

   *** convergence criteria satisfied after 20 iterations ***

         #    Occupation            Energy/Eh            Energy/eV
      -------------------------------------------------------------
         1        2.0000           -0.6932050             -18.8631
       ...           ...                  ...                  ...
        81        2.0000           -0.3900258             -10.6131
        82        2.0000           -0.3841524             -10.4533
        83        2.0000           -0.3777111             -10.2780
        84        1.9328           -0.3695576             -10.0562
        85        1.7589           -0.3681481             -10.0178
        86        1.3083           -0.3662907              -9.9673
        87        0.9988           -0.2705550              -7.3622 (HOMO)
        88        0.0012           -0.2577518              -7.0138 (LUMO)
        89                         -0.2469402              -6.7196
        90                         -0.2341020              -6.3702
        91                         -0.2127309              -5.7887
        92                         -0.1983405              -5.3971
       ...                                ...                  ...
       161                          0.7134305              19.4134
      -------------------------------------------------------------
                  HL-Gap            0.0128033 Eh            0.3484 eV
             Fermi-level           -0.3156060 Eh           -8.5881 eV

 transition dipole moment (au) for excitation:          86          87
     X       Y       Z   
  -2.4904   0.3824  -0.1668  total (au/Debye):    2.525   6.418
 dE (eV)             :    2.605
 oscillator strength :  0.57550E+00

 SCC (total)                   0 d,  0 h,  0 min,  0.186 sec
 SCC setup                      ...        0 min,  0.001 sec (  0.360%)
 Dispersion                     ...        0 min,  0.001 sec (  0.529%)
 classical contributions        ...        0 min,  0.000 sec (  0.163%)
 integral evaluation            ...        0 min,  0.013 sec (  7.184%)
 iterations                     ...        0 min,  0.099 sec ( 53.196%)
 molecular gradient             ...        0 min,  0.052 sec ( 27.808%)
 printout                       ...        0 min,  0.020 sec ( 10.755%)

         :::::::::::::::::::::::::::::::::::::::::::::::::::::
         ::                     SUMMARY                     ::
         :::::::::::::::::::::::::::::::::::::::::::::::::::::
         :: total energy             -94.796499352701 Eh    ::
         :: gradient norm              0.100132170440 Eh/a0 ::
         :: HOMO-LUMO gap              0.348394465278 eV    ::
         ::.................................................::
         :: SCC energy               -96.105937631035 Eh    ::
         :: -> isotropic ES            0.109880967561 Eh    ::
         :: -> anisotropic ES          0.005702586860 Eh    ::
         :: -> anisotropic XC          0.048157749609 Eh    ::
         :: -> dispersion             -0.071416841854 Eh    ::
         :: repulsion energy           1.309438278334 Eh    ::
         :: add. restraining           0.000000000000 Eh    ::
         :: total charge               0.000000000000 e     ::
         :::::::::::::::::::::::::::::::::::::::::::::::::::::

           -------------------------------------------------
          |                Property Printout                |
           -------------------------------------------------

    * Orbital Energies and Occupations

         #    Occupation            Energy/Eh            Energy/eV
      -------------------------------------------------------------
         1        2.0000           -0.6932050             -18.8631
       ...           ...                  ...                  ...
        75        2.0000           -0.4244018             -11.5486
        76        2.0000           -0.4207418             -11.4490
        77        2.0000           -0.4182936             -11.3823
        78        2.0000           -0.4109106             -11.1814
        79        2.0000           -0.4006104             -10.9012
        80        2.0000           -0.3938545             -10.7173
        81        2.0000           -0.3900258             -10.6131
        82        2.0000           -0.3841524             -10.4533
        83        2.0000           -0.3777111             -10.2780
        84        1.9328           -0.3695576             -10.0562
        85        1.7589           -0.3681481             -10.0178
        86        1.3083           -0.3662907              -9.9673
        87        0.9988           -0.2705550              -7.3622 (HOMO)
        88        0.0012           -0.2577518              -7.0138 (LUMO)
        89                         -0.2469402              -6.7196
        90                         -0.2341020              -6.3702
        91                         -0.2127309              -5.7887
        92                         -0.1983405              -5.3971
        93                         -0.1430270              -3.8920
        94                         -0.1122906              -3.0556
        95                         -0.0734038              -1.9974
        96                         -0.0317799              -0.8648
        97                         -0.0048560              -0.1321
        98                          0.0062637               0.1704
       ...                                ...                  ...
       161                          0.7134305              19.4134
      -------------------------------------------------------------
                  HL-Gap            0.0128033 Eh            0.3484 eV
             Fermi-level           -0.3156060 Eh           -8.5881 eV

     #   Z          covCN         q      C6AA      α(0)
     1   6 C        3.754    -0.135    23.159     6.862
     2   6 C        2.817     0.245    22.897     7.840
     3   6 C        2.964    -0.073    29.828     8.958
     4   6 C        2.957    -0.000    28.033     8.684
     5   6 C        3.758    -0.108    22.617     6.780
     6   6 C        2.979    -0.040    28.978     8.830
     7   6 C        2.925     0.038    27.144     8.544
     8   7 N        1.837    -0.259    27.575     7.782
     9   6 C        2.883     0.210    23.555     7.957
    10   7 N        2.727    -0.122    23.657     7.224
    11   6 C        2.891     0.144    24.856     8.174
    12   7 N        1.853    -0.254    27.458     7.766
    13   6 C        2.906     0.038    27.144     8.543
    14   6 C        2.905     0.041    27.072     8.531
    15   6 C        2.935    -0.037    28.919     8.819
    16   6 C        2.910    -0.054    29.350     8.884
    17   7 N        2.738    -0.091    23.015     7.125
    18   6 C        3.754    -0.004    20.714     6.490
    19   6 C        3.757     0.003    20.586     6.469
    20   7 N        2.678    -0.242    26.308     7.618
    21   6 C        3.757     0.002    20.592     6.470
    22   6 C        3.755    -0.002    20.673     6.483
    23   7 N        1.862    -0.299    28.612     7.928
    24   6 C        2.917     0.167    24.413     8.102
    25   7 N        2.749    -0.078    22.761     7.086
    26   6 C        3.822     0.037    19.943     6.355
    27   6 C        3.819    -0.063    21.694     6.629
    28   6 C        3.827    -0.058    21.600     6.613
    29   6 C        3.830    -0.058    21.586     6.611
    30   6 C        3.827    -0.065    21.720     6.632
    31   6 C        2.777     0.254    22.729     7.809
    32   8 O        0.859    -0.452    22.746     6.394
    33   8 O        0.857    -0.368    21.049     6.151
    34   1 H        0.925     0.102     1.771     2.081
    35   1 H        0.925     0.061     2.186     2.312
    36   1 H        0.925     0.055     2.263     2.353
    37   1 H        0.925     0.050     2.325     2.384
    38   1 H        0.925     0.064     2.152     2.294
    39   1 H        0.925     0.041     2.442     2.444
    40   1 H        0.925     0.041     2.431     2.438
    41   1 H        0.860     0.211     1.050     1.605
    42   1 H        0.926     0.040     2.451     2.448
    43   1 H        0.926     0.040     2.448     2.447
    44   1 H        0.926     0.078     1.997     2.210
    45   1 H        0.925     0.052     2.298     2.371
    46   1 H        0.923     0.030     2.590     2.517
    47   1 H        0.924     0.047     2.354     2.399
    48   1 H        0.924     0.054     2.271     2.357
    49   1 H        0.860     0.143     1.452     1.888
    50   1 H        0.924     0.054     2.267     2.354
    51   1 H        0.924     0.047     2.360     2.402
    52   1 H        0.922     0.030     2.589     2.516
    53   1 H        0.925     0.053     2.288     2.366
    54   1 H        0.924     0.082     1.964     2.191
    55   1 H        0.925     0.042     2.417     2.431
    56   1 H        0.925     0.038     2.471     2.458
    57   1 H        0.925     0.038     2.473     2.459
    58   1 H        0.925     0.033     2.550     2.497
    59   1 H        0.925     0.033     2.542     2.493
    60   1 H        0.924     0.037     2.489     2.467
    61   1 H        0.925     0.037     2.484     2.465
    62   1 H        0.925     0.051     2.310     2.377

 Mol. C6AA /au·bohr⁶  :      42267.441012
 Mol. C8AA /au·bohr⁸  :     981773.292202
 Mol. α(0) /au        :        315.168531


Wiberg/Mayer (AO) data.
largest (>0.10) Wiberg bond orders for each atom

 ---------------------------------------------------------------------------
     #   Z sym  total        # sym  WBO       # sym  WBO       # sym  WBO
 ---------------------------------------------------------------------------
     1   6 C    3.961 --     2 C    0.994    35 H    0.981    36 H    0.968
                            34 H    0.940
     2   6 C    3.890 --    33 O    1.776     3 C    1.018     1 C    0.994
     3   6 C    3.825 --     4 C    1.382    31 C    1.127     2 C    1.018
     4   6 C    3.894 --     3 C    1.382     6 C    1.255     5 C    1.027
     5   6 C    3.988 --     4 C    1.027    38 H    0.978    39 H    0.969
                            37 H    0.968
     6   6 C    3.890 --     4 C    1.255     7 C    1.219    24 C    1.193
     7   6 C    3.866 --     8 N    1.441     6 C    1.219    40 H    0.951
     8   7 N    3.003 --     7 C    1.441     9 C    1.297
     9   6 C    3.913 --     8 N    1.297    23 N    1.239    10 N    1.166
    10   7 N    3.473 --     9 C    1.166    11 C    1.150    41 H    0.917
    11   6 C    3.905 --    12 N    1.303    16 C    1.283    10 N    1.150
    12   7 N    3.005 --    13 C    1.467    11 C    1.303
    13   6 C    3.940 --    12 N    1.467    14 C    1.317    42 H    0.958
    14   6 C    3.904 --    13 C    1.317    15 C    1.283    17 N    1.137
    15   6 C    3.947 --    16 C    1.530    14 C    1.283    43 H    0.963
    16   6 C    3.960 --    15 C    1.530    11 C    1.283    44 H    0.953
    17   7 N    3.294 --    14 C    1.137    18 C    1.002    22 C    0.992
    18   6 C    3.973 --    17 N    1.002    19 C    0.978    45 H    0.969
                            46 H    0.960
    19   6 C    3.979 --    20 N    1.023    18 C    0.978    47 H    0.973
                            48 H    0.971
    20   7 N    3.082 --    19 C    1.023    21 C    1.021    49 H    0.954
    21   6 C    3.980 --    20 N    1.021    22 C    0.983    51 H    0.973
                            50 H    0.971
    22   6 C    3.971 --    17 N    0.992    21 C    0.983    53 H    0.967
                            52 H    0.959
    23   7 N    2.959 --    24 C    1.371     9 C    1.239
    24   6 C    3.949 --    23 N    1.371    25 N    1.204     6 C    1.193
    25   7 N    3.561 --    24 C    1.204    31 C    1.068    26 C    0.961
                            32 O    0.107
    26   6 C    3.948 --    30 C    0.984    27 C    0.981    25 N    0.961
                            54 H    0.953
    27   6 C    3.994 --    28 C    1.006    56 H    0.981    26 C    0.981
                            55 H    0.977
    28   6 C    3.996 --    29 C    1.007    27 C    1.006    58 H    0.980
                            57 H    0.976
    29   6 C    3.996 --    30 C    1.007    28 C    1.007    60 H    0.979
                            59 H    0.979
    30   6 C    3.991 --    29 C    1.007    26 C    0.984    61 H    0.979
                            62 H    0.970
    31   6 C    3.934 --    32 O    1.604     3 C    1.127    25 N    1.068
    32   8 O    1.918 --    31 C    1.604    25 N    0.107
    33   8 O    1.992 --     2 C    1.776
    34   1 H    0.987 --     1 C    0.940
    35   1 H    0.994 --     1 C    0.981
    36   1 H    0.995 --     1 C    0.968
    37   1 H    0.994 --     5 C    0.968
    38   1 H    0.995 --     5 C    0.978
    39   1 H    0.994 --     5 C    0.969
    40   1 H    0.986 --     7 C    0.951
    41   1 H    0.955 --    10 N    0.917
    42   1 H    0.997 --    13 C    0.958
    43   1 H    0.997 --    15 C    0.963
    44   1 H    0.992 --    16 C    0.953
    45   1 H    0.997 --    18 C    0.969
    46   1 H    0.988 --    18 C    0.960
    47   1 H    0.997 --    19 C    0.973
    48   1 H    0.996 --    19 C    0.971
    49   1 H    0.979 --    20 N    0.954
    50   1 H    0.996 --    21 C    0.971
    51   1 H    0.997 --    21 C    0.973
    52   1 H    0.988 --    22 C    0.959
    53   1 H    0.997 --    22 C    0.967
    54   1 H    0.991 --    26 C    0.953
    55   1 H    0.998 --    27 C    0.977
    56   1 H    0.997 --    27 C    0.981
    57   1 H    0.998 --    28 C    0.976
    58   1 H    0.999 --    28 C    0.980
    59   1 H    0.998 --    29 C    0.979
    60   1 H    0.998 --    29 C    0.979
    61   1 H    0.998 --    30 C    0.979
    62   1 H    0.996 --    30 C    0.970
 ---------------------------------------------------------------------------

Topologies differ in total number of bonds
Writing topology from bond orders to xtbtopo.mol

molecular dipole:
                 x           y           z       tot (Debye)
 q only:        5.575      -1.802      -0.313
   full:        5.404      -1.720      -0.790      14.554
molecular quadrupole (traceless):
                xx          xy          yy          xz          yz          zz
 q only:        1.882      20.532      -6.655       6.340      -6.996       4.772
  q+dip:       -7.351      16.604      -2.296       1.119      -6.439       9.647
   full:       -9.845      15.997      -4.572       0.937      -5.516      14.416


           -------------------------------------------------
          | TOTAL ENERGY              -94.796499352701 Eh   |
          | GRADIENT NORM               0.100132170440 Eh/α |
          | HOMO-LUMO GAP               0.348394465278 eV   |
           -------------------------------------------------

------------------------------------------------------------------------
 * finished run on 2025/05/15 at 16:14:32.203     
------------------------------------------------------------------------
 total:
 * wall-time:     0 d,  0 h,  0 min,  0.206 sec
 *  cpu-time:     0 d,  0 h,  0 min,  0.181 sec
 * ratio c/w:     0.878 speedup
 SCF:
 * wall-time:     0 d,  0 h,  0 min,  0.187 sec
 *  cpu-time:     0 d,  0 h,  0 min,  0.164 sec
 * ratio c/w:     0.877 speedup


