33
 energy: -45.171186945950 gnorm: 0.000522018230 xtb: 6.7.1 (edcfbbe)
C           -3.20726759601333        1.38583170147896       -0.41653438163134
C           -3.38292918330485       -0.12495861859681       -0.53734048630974
C           -2.31054758977673       -0.74848812342529       -1.45445714007358
C           -0.90910760321591       -0.56599700078297       -0.94898104291976
C           -0.16135108036884        0.55090564697614       -1.30418783116063
C            1.12273067241634        0.73056155850831       -0.82570871118351
C            1.69718609569265       -0.20843975274870        0.02171730782793
C            3.10112845975786       -0.01027891816939        0.55452615742133
C            4.01184390836255        0.11316896362675       -0.64765137979081
O            4.51585007093682       -1.07497696480680       -1.00595363289704
O            4.25056460412427        1.12343736200495       -1.25205136984546
C            3.19525674551193        1.23388708789965        1.43808310699843
C            0.96243816683452       -1.33372484076996        0.36630673777633
C           -0.32361594199546       -1.50785475119558       -0.11224179537853
C           -3.38089674323886       -0.77069438308383        0.84508284435298
H           -3.22181155207908        1.85581555768667       -1.39747068202933
H           -4.01368770019229        1.81139487442936        0.17669269650455
H           -2.26308344860088        1.62252535800692        0.06833080817986
H           -4.35437475041356       -0.32142690889598       -1.00680501769260
H           -2.52270719038708       -1.81558382658575       -1.55287777857871
H           -2.39926220731063       -0.29345430877488       -2.44352089943168
H           -0.58562470819838        1.28626294524626       -1.97225887807474
H            1.69129797846769        1.59822702143091       -1.12518538432308
H            3.39810598613486       -0.90147075407221        1.11353768362027
H            5.05857984338351       -0.98616783935086       -1.80526725413695
H            2.44014031669615        1.19290589210249        2.21921437296289
H            4.17802745402607        1.29618461766718        1.89996963055707
H            3.03921945662124        2.12800083173058        0.84103537908648
H            1.39833104389162       -2.08206896430349        1.01294786026607
H           -0.87580645551824       -2.39482825241608        0.16300685757650
H           -2.43798830043939       -0.58102682988773        1.35273806346670
H           -3.52501193615177       -1.84630387604865        0.76915673483709
H           -4.18552681565129       -0.36146450488042        1.45214742402311
