----- Optimization -----
      -----------------------------------------------------------      
     |                   =====================                   |     
     |                           x T B                           |     
     |                   =====================                   |     
     |                         S. Grimme                         |     
     |          Mulliken Center for Theoretical Chemistry        |     
     |                    University of Bonn                     |     
      -----------------------------------------------------------      

   * xtb version 6.7.1 (edcfbbe) compiled by 'conda@3ef47c1a292c' on 2024-11-25

   xtb is free software: you can redistribute it and/or modify it under
   the terms of the GNU Lesser General Public License as published by
   the Free Software Foundation, either version 3 of the License, or
   (at your option) any later version.
   
   xtb is distributed in the hope that it will be useful,
   but WITHOUT ANY WARRANTY; without even the implied warranty of
   MERCHANTABILITY or FITNESS FOR A PARTICULAR PURPOSE.  See the
   GNU Lesser General Public License for more details.
   
   Cite this work as:
   * C. Bannwarth, E. Caldeweyher, S. Ehlert, A. Hansen, P. Pracht,
     J. Seibert, S. Spicher, S. Grimme, WIREs Comput. Mol. Sci., 2020, 11,
     e01493. DOI: 10.1002/wcms.1493
   
   for GFN2-xTB:
   * C. Bannwarth, S. Ehlert and S. Grimme., J. Chem. Theory Comput., 2019,
     15, 1652-1671. DOI: 10.1021/acs.jctc.8b01176
   for GFN1-xTB:
   * S. Grimme, C. Bannwarth, P. Shushkov, J. Chem. Theory Comput., 2017,
     13, 1989-2009. DOI: 10.1021/acs.jctc.7b00118
   for GFN0-xTB:
   * P. Pracht, E. Caldeweyher, S. Ehlert, S. Grimme, ChemRxiv, 2019, preprint.
     DOI: 10.26434/chemrxiv.8326202.v1
   for GFN-FF:
   * S. Spicher and S. Grimme, Angew. Chem. Int. Ed., 2020, 59, 15665-15673.
     DOI: 10.1002/anie.202004239
   
   for ALPB and GBSA implicit solvation:
   * S. Ehlert, M. Stahn, S. Spicher, S. Grimme, J. Chem. Theory Comput.,
     2021, 17, 4250-4261. DOI: 10.1021/acs.jctc.1c00471
   
   for ddCOSMO and CPCM-X implicit solvation:
   * M. Stahn, S. Ehlert, S. Grimme, J. Phys. Chem. A,
     2023, XX, XXXX-XXXX. DOI: 10.1021/acs.jpca.3c04382
   
   for DFT-D4:
   * E. Caldeweyher, C. Bannwarth and S. Grimme, J. Chem. Phys., 2017,
     147, 034112. DOI: 10.1063/1.4993215
   * E. Caldeweyher, S. Ehlert, A. Hansen, H. Neugebauer, S. Spicher,
     C. Bannwarth and S. Grimme, J. Chem. Phys., 2019, 150, 154122.
     DOI: 10.1063/1.5090222
   * E. Caldeweyher, J.-M. Mewes, S. Ehlert and S. Grimme, Phys. Chem. Chem. Phys.
     2020, 22, 8499-8512. DOI: 10.1039/D0CP00502A
   
   for sTDA-xTB:
   * S. Grimme and C. Bannwarth, J. Chem. Phys., 2016, 145, 054103.
     DOI: 10.1063/1.4959605
   
   in the mass-spec context:
   * V. Asgeirsson, C. Bauer and S. Grimme, Chem. Sci., 2017, 8, 4879.
     DOI: 10.1039/c7sc00601b
   * J. Koopman and S. Grimme, ACS Omega 2019, 4, 12, 15120-15133.
     DOI: 10.1021/acsomega.9b02011
   
   for metadynamics refer to:
   * S. Grimme, J. Chem. Theory Comput., 2019, 155, 2847-2862
     DOI: 10.1021/acs.jctc.9b00143
   
   for SPH calculations refer to:
   * S. Spicher and S. Grimme, J. Chem. Theory Comput., 2021, 17, 1701-1714
     DOI: 10.1021/acs.jctc.0c01306
   
   for ONIOM refer to:
   * C. Plett, A. Katbashev, S. Ehlert, S. Grimme, M. Bursch,
     Phys. Chem. Chem. Phys., 2023, 25, 17860-17868. DOI: 10.1039/D3CP02178E
   
   for DIPRO refer to:
   * J. Kohn, N. Gildemeister, S. Grimme, D. Fazzi, A. Hansen,
     J. Chem. Phys., 2023, just accepted.
   
   for PTB refer to:
   * S. Grimme, M. Mueller, A. Hansen, J. Chem. Phys., 2023, 158, 124111.
     DOI: 10.1063/5.0137838
   
   with help from (in alphabetical order)
   P. Atkinson, C. Bannwarth, F. Bohle, G. Brandenburg, E. Caldeweyher
   M. Checinski, S. Dohm, S. Ehlert, S. Ehrlich, I. Gerasimov, C. Hölzer
   A. Katbashev, J. Kohn, J. Koopman, C. Lavigne, S. Lehtola, F. März, M. Müller,
   F. Musil, H. Neugebauer, J. Pisarek, C. Plett, P. Pracht, F. Pultar,
   J. Seibert, P. Shushkov, S. Spicher, M. Stahn, M. Steiner, T. Strunk,
   J. Stückrath, T. Rose, and J. Unsleber
   
 * started run on 2025/05/15 at 16:32:46.814     
   ID    Z sym.   atoms
    1    6 C      1-9, 12-15
    2    8 O      10, 11
    3    1 H      16-33

           -------------------------------------------------
          |                Calculation Setup                |
           -------------------------------------------------

          program call               : xtb /rds/general/user/hgt20/home/callum/QDESCP/Ibuprofen_rdkit_conf_12/Ibuprofen_rdkit_conf_12.xyz --opt normal --acc 1 --gfn 2 --chrg 0 --uhf 0 -P 1
          hostname                   : login-c
          coordinate file            : /rds/general/user/hgt20/home/callum/QDESCP/Ibuprofen_rdkit_conf_12/Ibuprofen_rdkit_conf_12.xyz
          omp threads                :                     1


           -------------------------------------------------
          |                 G F N 2 - x T B                 |
           -------------------------------------------------

        Reference                      10.1021/acs.jctc.8b01176
      * Hamiltonian:
        H0-scaling (s, p, d)           1.850000    2.230000    2.230000
        zeta-weighting                 0.500000
      * Dispersion:
        s8                             2.700000
        a1                             0.520000
        a2                             5.000000
        s9                             5.000000
      * Repulsion:
        kExp                           1.500000    1.000000
        rExp                           1.000000
      * Coulomb:
        alpha                          2.000000
        third order                    shell-resolved
        anisotropic                    true
        a3                             3.000000
        a5                             4.000000
        cn-shift                       1.200000
        cn-exp                         4.000000
        max-rad                        5.000000


          ...................................................
          :                      SETUP                      :
          :.................................................:
          :  # basis functions                  78          :
          :  # atomic orbitals                  78          :
          :  # shells                           48          :
          :  # electrons                        82          :
          :  max. iterations                   250          :
          :  Hamiltonian                  GFN2-xTB          :
          :  restarted?                      false          :
          :  GBSA solvation                  false          :
          :  PC potential                    false          :
          :  electronic temp.          300.0000000     K    :
          :  accuracy                    1.0000000          :
          :  -> integral cutoff          0.2500000E+02      :
          :  -> integral neglect         0.1000000E-07      :
          :  -> SCF convergence          0.1000000E-05 Eh   :
          :  -> wf. convergence          0.1000000E-03 e    :
          :  Broyden damping             0.4000000          :
          :  net charge                          0          :
          :  unpaired electrons                  0          :
          ...................................................

 iter      E             dE          RMSdq      gap      omega  full diag
   1    -45.7094180 -0.457094E+02  0.364E+00    4.40       0.0  T
   2    -45.7783246 -0.689066E-01  0.201E+00    4.14       1.0  T
   3    -45.7804211 -0.209654E-02  0.104E+00    4.30       1.0  T
   4    -45.7861676 -0.574650E-02  0.182E-01    3.80       1.0  T
   5    -45.7865666 -0.398972E-03  0.728E-02    3.81       1.0  T
   6    -45.7865902 -0.236447E-04  0.389E-02    3.84       1.0  T
   7    -45.7866131 -0.228518E-04  0.119E-02    3.84       1.5  T
   8    -45.7866150 -0.192081E-05  0.399E-03    3.85       4.4  T
   9    -45.7866151 -0.161686E-06  0.186E-03    3.85       9.4  T
  10    -45.7866152 -0.222922E-07  0.818E-04    3.85      21.3  T
  11    -45.7866152 -0.101184E-07  0.370E-04    3.85      47.1  T

   *** convergence criteria satisfied after 11 iterations ***

         #    Occupation            Energy/Eh            Energy/eV
      -------------------------------------------------------------
         1        2.0000           -0.7446181             -20.2621
       ...           ...                  ...                  ...
        35        2.0000           -0.4331452             -11.7865
        36        2.0000           -0.4303012             -11.7091
        37        2.0000           -0.4225610             -11.4985
        38        2.0000           -0.4140991             -11.2682
        39        2.0000           -0.4095517             -11.1445
        40        2.0000           -0.3959323             -10.7739
        41        2.0000           -0.3853768             -10.4866 (HOMO)
        42                         -0.2439865              -6.6392 (LUMO)
        43                         -0.2205308              -6.0009
        44                         -0.2197810              -5.9805
        45                         -0.0990352              -2.6949
        46                          0.0393696               1.0713
       ...                                ...                  ...
        78                          0.6239131              16.9775
      -------------------------------------------------------------
                  HL-Gap            0.1413903 Eh            3.8474 eV
             Fermi-level           -0.3146816 Eh           -8.5629 eV

 SCC (total)                   0 d,  0 h,  0 min,  0.032 sec
 SCC setup                      ...        0 min,  0.000 sec (  0.786%)
 Dispersion                     ...        0 min,  0.000 sec (  0.914%)
 classical contributions        ...        0 min,  0.000 sec (  0.285%)
 integral evaluation            ...        0 min,  0.004 sec ( 13.595%)
 iterations                     ...        0 min,  0.013 sec ( 41.657%)
 molecular gradient             ...        0 min,  0.014 sec ( 42.416%)
 printout                       ...        0 min,  0.000 sec (  0.329%)

         :::::::::::::::::::::::::::::::::::::::::::::::::::::
         ::                     SUMMARY                     ::
         :::::::::::::::::::::::::::::::::::::::::::::::::::::
         :: total energy             -45.163765872945 Eh    ::
         :: gradient norm              0.053348562491 Eh/a0 ::
         :: HOMO-LUMO gap              3.847426872895 eV    ::
         ::.................................................::
         :: SCC energy               -45.786442103399 Eh    ::
         :: -> isotropic ES            0.052281728062 Eh    ::
         :: -> anisotropic ES          0.007620401331 Eh    ::
         :: -> anisotropic XC          0.019634377546 Eh    ::
         :: -> dispersion             -0.029468899926 Eh    ::
         :: repulsion energy           0.622676230454 Eh    ::
         :: add. restraining           0.000000000000 Eh    ::
         :: total charge               0.000000000000 e     ::
         :::::::::::::::::::::::::::::::::::::::::::::::::::::

      ----------------------------------------------------------- 
     |                   =====================                   |
     |                        A N C O P T                        |
     |                   =====================                   |
     |               Approximate Normal Coordinate               |
     |                Rational Function Optimizer                |
      ----------------------------------------------------------- 
      ----------------------------------------------------------- 
     |                   =====================                   |
     |                        A N C O P T                        |
     |                   =====================                   |
     |               Approximate Normal Coordinate               |
     |                Rational Function Optimizer                |
      ----------------------------------------------------------- 

          ...................................................
          :                      SETUP                      :
          :.................................................:
          :   optimization level            normal          :
          :   max. optcycles                   200          :
          :   ANC micro-cycles                  20          :
          :   degrees of freedom                93          :
          :.................................................:
          :   RF solver                   davidson          :
          :   write xtbopt.log                true          :
          :   linear?                        false          :
          :   energy convergence         0.5000000E-05 Eh   :
          :   grad. convergence          0.1000000E-02 Eh/α :
          :   maxmium RF displ.          1.0000000          :
          :   Hlow (freq-cutoff)         0.1000000E-01      :
          :   Hmax (freq-cutoff)         5.0000000          :
          :   S6 in model hess.         20.0000000          :
          ...................................................

generating ANC from exact Hessian ...
Using Lindh-Hessian (1995)
 Shifting diagonal of input Hessian by    9.5866035330829831E-003
 Lowest  eigenvalues of input Hessian
    0.000000    0.000000    0.000000    0.000000    0.000000    0.000000
    0.010000    0.010223    0.010815    0.011549    0.012154    0.013859
    0.015008    0.016638    0.018052    0.018422    0.018561    0.020261
 Highest eigenvalues
    1.554893    1.682789    1.821673    1.893392    1.935026    2.250544


........................................................................
.............................. CYCLE    1 ..............................
........................................................................

 iter      E             dE          RMSdq      gap      omega  full diag
   1    -45.7866152 -0.457866E+02  0.165E-04    3.85       0.0  T
   2    -45.7866152 -0.246061E-09  0.112E-04    3.85     155.3  T
   3    -45.7866152 -0.217526E-09  0.658E-05    3.85     264.7  T
     SCC iter.                  ...        0 min,  0.004 sec
     gradient                   ...        0 min,  0.014 sec
 * total energy  :   -45.1637659 Eh     change       -0.1115254E-08 Eh
   gradient norm :     0.0533538 Eh/α   predicted     0.0000000E+00 (-100.00%)
   displ. norm   :     0.2349706 α      lambda       -0.6058565E-02
   maximum displ.:     0.0829029 α      in ANC's #4, #23, #19, ...

........................................................................
.............................. CYCLE    2 ..............................
........................................................................

 iter      E             dE          RMSdq      gap      omega  full diag
   1    -45.8207014 -0.458207E+02  0.138E-01    4.06       0.0  T
   2    -45.8207645 -0.630776E-04  0.815E-02    4.02       1.0  T
   3    -45.8207601  0.446284E-05  0.314E-02    4.03       1.0  T
   4    -45.8207686 -0.857209E-05  0.717E-03    4.02       2.4  T
   5    -45.8207702 -0.159930E-05  0.264E-03    4.02       6.6  T
   6    -45.8207704 -0.168491E-06  0.133E-03    4.03      13.1  T
   7    -45.8207704 -0.689256E-08  0.380E-04    4.03      45.8  T
   8    -45.8207704 -0.175546E-08  0.153E-04    4.03     114.1  T
     SCC iter.                  ...        0 min,  0.009 sec
     gradient                   ...        0 min,  0.014 sec
 * total energy  :   -45.1677500 Eh     change       -0.3984167E-02 Eh
   gradient norm :     0.0174933 Eh/α   predicted    -0.3197320E-02 ( -19.75%)
   displ. norm   :     0.2260524 α      lambda       -0.1689192E-02
   maximum displ.:     0.1311301 α      in ANC's #4, #6, #19, ...

........................................................................
.............................. CYCLE    3 ..............................
........................................................................

 iter      E             dE          RMSdq      gap      omega  full diag
   1    -45.8359440 -0.458359E+02  0.762E-02    4.10       0.0  T
   2    -45.8359606 -0.165361E-04  0.444E-02    4.08       1.0  T
   3    -45.8359592  0.137397E-05  0.163E-02    4.08       1.1  T
   4    -45.8359619 -0.264945E-05  0.383E-03    4.07       4.5  T
   5    -45.8359622 -0.364357E-06  0.152E-03    4.08      11.4  T
   6    -45.8359623 -0.383141E-07  0.787E-04    4.08      22.1  T
   7    -45.8359623 -0.363492E-08  0.235E-04    4.08      74.1  T
     SCC iter.                  ...        0 min,  0.040 sec
     gradient                   ...        0 min,  0.014 sec
 * total energy  :   -45.1687786 Eh     change       -0.1028594E-02 Eh
   gradient norm :     0.0080566 Eh/α   predicted    -0.8884696E-03 ( -13.62%)
   displ. norm   :     0.1871551 α      lambda       -0.5046640E-03
   maximum displ.:     0.1459083 α      in ANC's #4, #6, #8, ...

........................................................................
.............................. CYCLE    4 ..............................
........................................................................

 iter      E             dE          RMSdq      gap      omega  full diag
   1    -45.8370812 -0.458371E+02  0.390E-02    4.08       0.0  T
   2    -45.8370828 -0.160904E-05  0.229E-02    4.07       1.0  T
   3    -45.8370824  0.445494E-06  0.592E-03    4.07       2.9  T
   4    -45.8370831 -0.744127E-06  0.162E-03    4.07      10.7  T
   5    -45.8370832 -0.331667E-07  0.869E-04    4.07      20.0  T
   6    -45.8370832 -0.513106E-08  0.391E-04    4.07      44.6  T
     SCC iter.                  ...        0 min,  0.007 sec
     gradient                   ...        0 min,  0.014 sec
 * total energy  :   -45.1691051 Eh     change       -0.3264742E-03 Eh
   gradient norm :     0.0054608 Eh/α   predicted    -0.2612007E-03 ( -19.99%)
   displ. norm   :     0.1659720 α      lambda       -0.2380571E-03
   maximum displ.:     0.1321939 α      in ANC's #4, #1, #6, ...

........................................................................
.............................. CYCLE    5 ..............................
........................................................................

 iter      E             dE          RMSdq      gap      omega  full diag
   1    -45.8348036 -0.458348E+02  0.424E-02    4.07       0.0  T
   2    -45.8348043 -0.778325E-06  0.252E-02    4.07       1.0  T
   3    -45.8348031  0.129262E-05  0.656E-03    4.06       2.7  T
   4    -45.8348047 -0.159723E-05  0.131E-03    4.06      13.2  T
   5    -45.8348047 -0.205827E-07  0.712E-04    4.06      24.5  T
   6    -45.8348047 -0.375164E-08  0.247E-04    4.06      70.5  T
     SCC iter.                  ...        0 min,  0.007 sec
     gradient                   ...        0 min,  0.047 sec
 * total energy  :   -45.1692625 Eh     change       -0.1573655E-03 Eh
   gradient norm :     0.0031425 Eh/α   predicted    -0.1223827E-03 ( -22.23%)
   displ. norm   :     0.1143684 α      lambda       -0.9808748E-04
   maximum displ.:     0.0897856 α      in ANC's #4, #1, #9, ...

........................................................................
.............................. CYCLE    6 ..............................
........................................................................

 iter      E             dE          RMSdq      gap      omega  full diag
   1    -45.8334574 -0.458335E+02  0.319E-02    4.07       0.0  T
   2    -45.8334577 -0.262650E-06  0.188E-02    4.07       1.0  T
   3    -45.8334573  0.392434E-06  0.347E-03    4.07       5.0  T
   4    -45.8334578 -0.484954E-06  0.789E-04    4.06      22.1  T
   5    -45.8334578 -0.990806E-08  0.410E-04    4.06      42.4  T
     SCC iter.                  ...        0 min,  0.006 sec
     gradient                   ...        0 min,  0.014 sec
 * total energy  :   -45.1693382 Eh     change       -0.7569084E-04 Eh
   gradient norm :     0.0025278 Eh/α   predicted    -0.4971822E-04 ( -34.31%)
   displ. norm   :     0.1280773 α      lambda       -0.8676916E-04
   maximum displ.:     0.0921111 α      in ANC's #4, #1, #9, ...

........................................................................
.............................. CYCLE    7 ..............................
........................................................................

 iter      E             dE          RMSdq      gap      omega  full diag
   1    -45.8329934 -0.458330E+02  0.345E-02    4.07       0.0  T
   2    -45.8329936 -0.280065E-06  0.204E-02    4.07       1.0  T
   3    -45.8329935  0.184919E-06  0.267E-03    4.07       6.5  T
   4    -45.8329937 -0.261192E-06  0.934E-04    4.07      18.6  T
   5    -45.8329937 -0.170996E-07  0.470E-04    4.07      37.0  T
     SCC iter.                  ...        0 min,  0.006 sec
     gradient                   ...        0 min,  0.014 sec
 * total energy  :   -45.1694080 Eh     change       -0.6987865E-04 Eh
   gradient norm :     0.0025232 Eh/α   predicted    -0.4409776E-04 ( -36.89%)
   displ. norm   :     0.1843137 α      lambda       -0.9836558E-04
   maximum displ.:     0.1247472 α      in ANC's #4, #1, #9, ...

........................................................................
.............................. CYCLE    8 ..............................
........................................................................

 iter      E             dE          RMSdq      gap      omega  full diag
   1    -45.8331096 -0.458331E+02  0.500E-02    4.06       0.0  T
   2    -45.8331099 -0.341724E-06  0.294E-02    4.06       1.0  T
   3    -45.8331099  0.423385E-07  0.263E-03    4.06       6.6  T
   4    -45.8331101 -0.202862E-06  0.124E-03    4.06      14.0  T
   5    -45.8331101 -0.125795E-07  0.614E-04    4.06      28.3  T
   6    -45.8331101 -0.216487E-08  0.165E-04    4.06     105.5  T
     SCC iter.                  ...        0 min,  0.007 sec
     gradient                   ...        0 min,  0.045 sec
 * total energy  :   -45.1694854 Eh     change       -0.7736711E-04 Eh
   gradient norm :     0.0030232 Eh/α   predicted    -0.5085773E-04 ( -34.26%)
   displ. norm   :     0.2589058 α      lambda       -0.1042442E-03
   maximum displ.:     0.1685739 α      in ANC's #4, #1, #9, ...

........................................................................
.............................. CYCLE    9 ..............................
........................................................................

 iter      E             dE          RMSdq      gap      omega  full diag
   1    -45.8334358 -0.458334E+02  0.720E-02    4.05       0.0  T
   2    -45.8334365 -0.694070E-06  0.423E-02    4.05       1.0  T
   3    -45.8334364  0.760673E-07  0.403E-03    4.05       4.3  T
   4    -45.8334368 -0.439291E-06  0.176E-03    4.05       9.9  T
   5    -45.8334369 -0.612573E-08  0.896E-04    4.05      19.4  T
   6    -45.8334369 -0.131160E-07  0.191E-04    4.05      91.1  T
     SCC iter.                  ...        0 min,  0.007 sec
     gradient                   ...        0 min,  0.014 sec
 * total energy  :   -45.1695581 Eh     change       -0.7271212E-04 Eh
   gradient norm :     0.0038126 Eh/α   predicted    -0.5561868E-04 ( -23.51%)
   displ. norm   :     0.1847859 α      lambda       -0.6256846E-04
   maximum displ.:     0.1063995 α      in ANC's #4, #1, #6, ...

........................................................................
.............................. CYCLE   10 ..............................
........................................................................

 iter      E             dE          RMSdq      gap      omega  full diag
   1    -45.8345384 -0.458345E+02  0.523E-02    4.04       0.0  T
   2    -45.8345388 -0.435784E-06  0.307E-02    4.04       1.0  T
   3    -45.8345389 -0.921348E-07  0.222E-03    4.04       7.8  T
   4    -45.8345390 -0.709904E-07  0.130E-03    4.05      13.4  T
   5    -45.8345390 -0.168778E-07  0.680E-04    4.05      25.6  T
   6    -45.8345390 -0.214111E-08  0.137E-04    4.04     127.0  T
     SCC iter.                  ...        0 min,  0.007 sec
     gradient                   ...        0 min,  0.014 sec
 * total energy  :   -45.1696050 Eh     change       -0.4692177E-04 Eh
   gradient norm :     0.0032175 Eh/α   predicted    -0.3235547E-04 ( -31.04%)
   displ. norm   :     0.1856453 α      lambda       -0.6134089E-04
   maximum displ.:     0.1036633 α      in ANC's #1, #4, #6, ...

........................................................................
.............................. CYCLE   11 ..............................
........................................................................

 iter      E             dE          RMSdq      gap      omega  full diag
   1    -45.8355272 -0.458355E+02  0.563E-02    4.04       0.0  T
   2    -45.8355276 -0.428074E-06  0.330E-02    4.04       1.0  T
   3    -45.8355278 -0.121850E-06  0.260E-03    4.04       6.7  T
   4    -45.8355278 -0.912100E-07  0.135E-03    4.04      12.9  T
   5    -45.8355278 -0.430443E-08  0.676E-04    4.04      25.7  T
   6    -45.8355278 -0.280105E-08  0.164E-04    4.04     106.4  T
     SCC iter.                  ...        0 min,  0.040 sec
     gradient                   ...        0 min,  0.014 sec
 * total energy  :   -45.1696521 Eh     change       -0.4703716E-04 Eh
   gradient norm :     0.0033471 Eh/α   predicted    -0.3173156E-04 ( -32.54%)
   displ. norm   :     0.2213769 α      lambda       -0.6955513E-04
   maximum displ.:     0.1247675 α      in ANC's #1, #7, #6, ...

........................................................................
.............................. CYCLE   12 ..............................
........................................................................

 iter      E             dE          RMSdq      gap      omega  full diag
   1    -45.8357626 -0.458358E+02  0.720E-02    4.03       0.0  T
   2    -45.8357632 -0.608227E-06  0.422E-02    4.03       1.0  T
   3    -45.8357634 -0.229238E-06  0.333E-03    4.03       5.2  T
   4    -45.8357636 -0.143424E-06  0.181E-03    4.03       9.6  T
   5    -45.8357636 -0.914507E-08  0.598E-04    4.03      29.1  T
   6    -45.8357636 -0.239122E-08  0.150E-04    4.03     116.1  T
     SCC iter.                  ...        0 min,  0.007 sec
     gradient                   ...        0 min,  0.014 sec
 * total energy  :   -45.1697062 Eh     change       -0.5410366E-04 Eh
   gradient norm :     0.0047774 Eh/α   predicted    -0.3648641E-04 ( -32.56%)
   displ. norm   :     0.2501653 α      lambda       -0.9795067E-04
   maximum displ.:     0.1386427 α      in ANC's #1, #7, #6, ...

........................................................................
.............................. CYCLE   13 ..............................
........................................................................

 iter      E             dE          RMSdq      gap      omega  full diag
   1    -45.8362422 -0.458362E+02  0.837E-02    4.04       0.0  T
   2    -45.8362434 -0.126271E-05  0.490E-02    4.04       1.0  T
   3    -45.8362431  0.324835E-06  0.618E-03    4.04       2.8  T
   4    -45.8362440 -0.927890E-06  0.217E-03    4.04       8.0  T
   5    -45.8362440 -0.753597E-08  0.128E-03    4.04      13.6  T
   6    -45.8362441 -0.146554E-07  0.267E-04    4.04      65.1  T
   7    -45.8362441 -0.901430E-09  0.836E-05    4.04     208.3  T
     SCC iter.                  ...        0 min,  0.008 sec
     gradient                   ...        0 min,  0.014 sec
 * total energy  :   -45.1697754 Eh     change       -0.6926079E-04 Eh
   gradient norm :     0.0050878 Eh/α   predicted    -0.5204089E-04 ( -24.86%)
   displ. norm   :     0.3129037 α      lambda       -0.9773579E-04
   maximum displ.:     0.1754208 α      in ANC's #1, #7, #6, ...

........................................................................
.............................. CYCLE   14 ..............................
........................................................................

 iter      E             dE          RMSdq      gap      omega  full diag
   1    -45.8331891 -0.458332E+02  0.117E-01    3.98       0.0  T
   2    -45.8331934 -0.428206E-05  0.688E-02    3.99       1.0  T
   3    -45.8331918  0.158757E-05  0.113E-02    3.99       1.5  T
   4    -45.8331950 -0.319975E-05  0.320E-03    3.99       5.4  T
   5    -45.8331950 -0.357559E-08  0.185E-03    3.99       9.4  T
   6    -45.8331950 -0.297791E-07  0.550E-04    3.99      31.7  T
   7    -45.8331950 -0.436416E-08  0.153E-04    3.99     114.1  T
     SCC iter.                  ...        0 min,  0.035 sec
     gradient                   ...        0 min,  0.014 sec
 * total energy  :   -45.1697930 Eh     change       -0.1754398E-04 Eh
   gradient norm :     0.0121440 Eh/α   predicted    -0.5365578E-04 ( 205.84%)
   displ. norm   :     0.0889278 α      lambda       -0.1922051E-03
   maximum displ.:     0.0643895 α      in ANC's #4, #9, #7, ...

........................................................................
.............................. CYCLE   15 ..............................
........................................................................

 iter      E             dE          RMSdq      gap      omega  full diag
   1    -45.8345773 -0.458346E+02  0.315E-02    4.07       0.0  T
   2    -45.8345833 -0.595410E-05  0.190E-02    4.06       1.0  T
   3    -45.8345841 -0.813765E-06  0.102E-02    4.06       1.7  T
   4    -45.8345845 -0.436186E-06  0.124E-03    4.06      14.1  T
   5    -45.8345845 -0.119628E-07  0.752E-04    4.06      23.1  T
   6    -45.8345846 -0.771922E-08  0.381E-04    4.06      45.7  T
     SCC iter.                  ...        0 min,  0.007 sec
     gradient                   ...        0 min,  0.014 sec
 * total energy  :   -45.1698873 Eh     change       -0.9433189E-04 Eh
   gradient norm :     0.0024437 Eh/α   predicted    -0.9686624E-04 (   2.69%)
   displ. norm   :     0.1050566 α      lambda       -0.5009621E-04
   maximum displ.:     0.0559444 α      in ANC's #14, #7, #1, ...

........................................................................
.............................. CYCLE   16 ..............................
........................................................................

 iter      E             dE          RMSdq      gap      omega  full diag
   1    -45.8346351 -0.458346E+02  0.450E-02    4.04       0.0  T
   2    -45.8346356 -0.483960E-06  0.264E-02    4.05       1.0  T
   3    -45.8346354  0.163548E-06  0.379E-03    4.05       4.6  T
   4    -45.8346358 -0.383975E-06  0.125E-03    4.05      13.9  T
   5    -45.8346358  0.833403E-09  0.713E-04    4.05      24.4  T
   6    -45.8346358 -0.722354E-08  0.107E-04    4.05     163.2  T
     SCC iter.                  ...        0 min,  0.007 sec
     gradient                   ...        0 min,  0.014 sec
 * total energy  :   -45.1699274 Eh     change       -0.4011752E-04 Eh
   gradient norm :     0.0022317 Eh/α   predicted    -0.2532729E-04 ( -36.87%)
   displ. norm   :     0.1767925 α      lambda       -0.8836537E-04
   maximum displ.:     0.1076164 α      in ANC's #14, #7, #1, ...

........................................................................
.............................. CYCLE   17 ..............................
........................................................................

 iter      E             dE          RMSdq      gap      omega  full diag
   1    -45.8342571 -0.458343E+02  0.829E-02    4.02       0.0  T
   2    -45.8342587 -0.159224E-05  0.488E-02    4.03       1.0  T
   3    -45.8342582  0.524094E-06  0.669E-03    4.02       2.6  T
   4    -45.8342594 -0.120225E-05  0.219E-03    4.03       7.9  T
   5    -45.8342594 -0.427498E-09  0.125E-03    4.03      13.9  T
   6    -45.8342594 -0.193985E-07  0.235E-04    4.03      73.9  T
   7    -45.8342594 -0.820961E-09  0.905E-05    4.03     192.3  T
     SCC iter.                  ...        0 min,  0.008 sec
     gradient                   ...        0 min,  0.014 sec
 * total energy  :   -45.1699796 Eh     change       -0.5218263E-04 Eh
   gradient norm :     0.0069061 Eh/α   predicted    -0.4556740E-04 ( -12.68%)
   displ. norm   :     0.0827313 α      lambda       -0.5629269E-04
   maximum displ.:     0.0491524 α      in ANC's #5, #9, #14, ...

........................................................................
.............................. CYCLE   18 ..............................
........................................................................

 iter      E             dE          RMSdq      gap      omega  full diag
   1    -45.8353606 -0.458354E+02  0.277E-02    4.04       0.0  T
   2    -45.8353610 -0.353803E-06  0.163E-02    4.04       1.1  T
   3    -45.8353609  0.102978E-06  0.279E-03    4.04       6.2  T
   4    -45.8353610 -0.176309E-06  0.589E-04    4.04      29.6  T
   5    -45.8353610 -0.882039E-09  0.349E-04    4.04      49.8  T
     SCC iter.                  ...        0 min,  0.006 sec
     gradient                   ...        0 min,  0.014 sec
 * total energy  :   -45.1700210 Eh     change       -0.4136298E-04 Eh
   gradient norm :     0.0050220 Eh/α   predicted    -0.2834245E-04 ( -31.48%)
   displ. norm   :     0.1847446 α      lambda       -0.9330575E-04
   maximum displ.:     0.0933707 α      in ANC's #14, #5, #4, ...

........................................................................
.............................. CYCLE   19 ..............................
........................................................................

 iter      E             dE          RMSdq      gap      omega  full diag
   1    -45.8348206 -0.458348E+02  0.793E-02    4.03       0.0  T
   2    -45.8348212 -0.640579E-06  0.465E-02    4.04       1.0  T
   3    -45.8348213 -0.652549E-07  0.370E-03    4.04       4.7  T
   4    -45.8348216 -0.317229E-06  0.182E-03    4.04       9.6  T
   5    -45.8348216 -0.897798E-08  0.669E-04    4.04      26.0  T
   6    -45.8348216 -0.357343E-08  0.144E-04    4.04     120.7  T
     SCC iter.                  ...        0 min,  0.007 sec
     gradient                   ...        0 min,  0.050 sec
 * total energy  :   -45.1700925 Eh     change       -0.7151043E-04 Eh
   gradient norm :     0.0055901 Eh/α   predicted    -0.4824791E-04 ( -32.53%)
   displ. norm   :     0.2357889 α      lambda       -0.1286942E-03
   maximum displ.:     0.1211069 α      in ANC's #5, #14, #4, ...

........................................................................
.............................. CYCLE   20 ..............................
........................................................................

 iter      E             dE          RMSdq      gap      omega  full diag
   1    -45.8343568 -0.458344E+02  0.941E-02    4.04       0.0  T
   2    -45.8343579 -0.109715E-05  0.551E-02    4.04       1.0  T
   3    -45.8343580 -0.910956E-07  0.436E-03    4.04       4.0  T
   4    -45.8343584 -0.402812E-06  0.213E-03    4.04       8.2  T
   5    -45.8343584 -0.261407E-07  0.109E-03    4.04      16.0  T
   6    -45.8343584 -0.561628E-08  0.258E-04    4.04      67.4  T
   7    -45.8343584 -0.110383E-08  0.760E-05    4.04     229.0  T
     SCC iter.                  ...        0 min,  0.008 sec
     gradient                   ...        0 min,  0.014 sec
 * total energy  :   -45.1701815 Eh     change       -0.8903907E-04 Eh
   gradient norm :     0.0047941 Eh/α   predicted    -0.6792761E-04 ( -23.71%)
   displ. norm   :     0.1922706 α      lambda       -0.9073882E-04
   maximum displ.:     0.0847438 α      in ANC's #5, #7, #6, ...
 * RMSD in coord.:     0.4582712 α      energy gain  -0.6415662E-02 Eh

generating ANC from exact Hessian ...
Using Lindh-Hessian (1995)
 Shifting diagonal of input Hessian by    9.5745372498180700E-003
 Lowest  eigenvalues of input Hessian
    0.000000    0.000000    0.000000    0.000000    0.000000    0.000000
    0.010000    0.010226    0.010881    0.011567    0.012569    0.014690
    0.014742    0.017400    0.018715    0.019009    0.019053    0.021053
 Highest eigenvalues
    1.617578    1.762013    1.896700    1.975682    2.029209    2.356378


........................................................................
.............................. CYCLE   21 ..............................
........................................................................

 iter      E             dE          RMSdq      gap      omega  full diag
   1    -45.8340503 -0.458341E+02  0.803E-02    4.03       0.0  T
   2    -45.8340519 -0.153350E-05  0.471E-02    4.03       1.0  T
   3    -45.8340513  0.524421E-06  0.565E-03    4.04       3.1  T
   4    -45.8340523 -0.953113E-06  0.211E-03    4.03       8.3  T
   5    -45.8340524 -0.599216E-07  0.113E-03    4.03      15.5  T
   6    -45.8340524 -0.150557E-08  0.364E-04    4.03      47.8  T
   7    -45.8340524 -0.249987E-08  0.650E-05    4.03     268.0  T
     SCC iter.                  ...        0 min,  0.008 sec
     gradient                   ...        0 min,  0.041 sec
 * total energy  :   -45.1702497 Eh     change       -0.6817620E-04 Eh
   gradient norm :     0.0058741 Eh/α   predicted     0.0000000E+00 (-100.00%)
   displ. norm   :     0.0565864 α      lambda       -0.8446830E-04
   maximum displ.:     0.0333695 α      in ANC's #7, #1, #9, ...

........................................................................
.............................. CYCLE   22 ..............................
........................................................................

 iter      E             dE          RMSdq      gap      omega  full diag
   1    -45.8353905 -0.458354E+02  0.186E-02    4.06       0.0  T
   2    -45.8353910 -0.539059E-06  0.109E-02    4.05       1.6  T
   3    -45.8353909  0.116840E-06  0.373E-03    4.05       4.7  T
   4    -45.8353911 -0.218587E-06  0.691E-04    4.05      25.2  T
   5    -45.8353911 -0.577391E-08  0.418E-04    4.05      41.6  T
     SCC iter.                  ...        0 min,  0.006 sec
     gradient                   ...        0 min,  0.014 sec
 * total energy  :   -45.1703137 Eh     change       -0.6401511E-04 Eh
   gradient norm :     0.0025643 Eh/α   predicted    -0.4651721E-04 ( -27.33%)
   displ. norm   :     0.1117883 α      lambda       -0.9575760E-04
   maximum displ.:     0.0586686 α      in ANC's #7, #1, #9, ...

........................................................................
.............................. CYCLE   23 ..............................
........................................................................

 iter      E             dE          RMSdq      gap      omega  full diag
   1    -45.8366009 -0.458366E+02  0.383E-02    4.07       0.0  T
   2    -45.8366016 -0.689599E-06  0.225E-02    4.07       1.0  T
   3    -45.8366014  0.240792E-06  0.422E-03    4.07       4.1  T
   4    -45.8366018 -0.435074E-06  0.116E-03    4.07      15.0  T
   5    -45.8366018 -0.651855E-08  0.691E-04    4.07      25.2  T
   6    -45.8366018 -0.299496E-08  0.268E-04    4.07      64.9  T
     SCC iter.                  ...        0 min,  0.007 sec
     gradient                   ...        0 min,  0.014 sec
 * total energy  :   -45.1703862 Eh     change       -0.7244196E-04 Eh
   gradient norm :     0.0032934 Eh/α   predicted    -0.4847752E-04 ( -33.08%)
   displ. norm   :     0.2220177 α      lambda       -0.1283225E-03
   maximum displ.:     0.1122912 α      in ANC's #7, #1, #2, ...

........................................................................
.............................. CYCLE   24 ..............................
........................................................................

 iter      E             dE          RMSdq      gap      omega  full diag
   1    -45.8363179 -0.458363E+02  0.765E-02    4.06       0.0  T
   2    -45.8363190 -0.110844E-05  0.449E-02    4.07       1.0  T
   3    -45.8363186  0.314783E-06  0.554E-03    4.07       3.1  T
   4    -45.8363195 -0.869500E-06  0.214E-03    4.07       8.1  T
   5    -45.8363195 -0.396143E-08  0.110E-03    4.07      15.8  T
   6    -45.8363195 -0.135397E-07  0.257E-04    4.07      67.7  T
   7    -45.8363195 -0.103110E-08  0.757E-05    4.07     229.9  T
     SCC iter.                  ...        0 min,  0.008 sec
     gradient                   ...        0 min,  0.033 sec
 * total energy  :   -45.1704900 Eh     change       -0.1038526E-03 Eh
   gradient norm :     0.0038242 Eh/α   predicted    -0.6732514E-04 ( -35.17%)
   displ. norm   :     0.3826070 α      lambda       -0.1782937E-03
   maximum displ.:     0.1797086 α      in ANC's #7, #1, #2, ...

........................................................................
.............................. CYCLE   25 ..............................
........................................................................

 iter      E             dE          RMSdq      gap      omega  full diag
   1    -45.8337393 -0.458337E+02  0.136E-01    4.01       0.0  T
   2    -45.8337483 -0.903320E-05  0.800E-02    4.02       1.0  T
   3    -45.8337444  0.397916E-05  0.166E-02    4.02       1.1  T
   4    -45.8337511 -0.669237E-05  0.365E-03    4.03       4.8  T
   5    -45.8337511 -0.751483E-08  0.213E-03    4.03       8.2  T
   6    -45.8337511 -0.291678E-07  0.859E-04    4.03      20.3  T
   7    -45.8337511 -0.138135E-07  0.148E-04    4.03     117.8  T
     SCC iter.                  ...        0 min,  0.008 sec
     gradient                   ...        0 min,  0.014 sec
 * total energy  :   -45.1705627 Eh     change       -0.7271843E-04 Eh
   gradient norm :     0.0097426 Eh/α   predicted    -0.1022100E-03 (  40.56%)
   displ. norm   :     0.0561209 α      lambda       -0.1135036E-03
   maximum displ.:     0.0374287 α      in ANC's #7, #9, #14, ...

........................................................................
.............................. CYCLE   26 ..............................
........................................................................

 iter      E             dE          RMSdq      gap      omega  full diag
   1    -45.8350276 -0.458350E+02  0.267E-02    4.06       0.0  T
   2    -45.8350305 -0.290647E-05  0.162E-02    4.05       1.1  T
   3    -45.8350308 -0.229533E-06  0.785E-03    4.06       2.2  T
   4    -45.8350312 -0.421569E-06  0.936E-04    4.05      18.6  T
   5    -45.8350312 -0.147107E-08  0.558E-04    4.05      31.2  T
     SCC iter.                  ...        0 min,  0.006 sec
     gradient                   ...        0 min,  0.014 sec
 * total energy  :   -45.1706385 Eh     change       -0.7576429E-04 Eh
   gradient norm :     0.0038266 Eh/α   predicted    -0.5693468E-04 ( -24.85%)
   displ. norm   :     0.1960299 α      lambda       -0.1242374E-03
   maximum displ.:     0.1027621 α      in ANC's #4, #1, #2, ...

........................................................................
.............................. CYCLE   27 ..............................
........................................................................

 iter      E             dE          RMSdq      gap      omega  full diag
   1    -45.8353471 -0.458353E+02  0.537E-02    4.06       0.0  T
   2    -45.8353480 -0.841960E-06  0.315E-02    4.06       1.0  T
   3    -45.8353476  0.411425E-06  0.510E-03    4.07       3.4  T
   4    -45.8353483 -0.684067E-06  0.132E-03    4.06      13.2  T
   5    -45.8353483 -0.301933E-08  0.805E-04    4.06      21.6  T
   6    -45.8353483 -0.611679E-08  0.275E-04    4.06      63.3  T
     SCC iter.                  ...        0 min,  0.007 sec
     gradient                   ...        0 min,  0.044 sec
 * total energy  :   -45.1707322 Eh     change       -0.9365428E-04 Eh
   gradient norm :     0.0024255 Eh/α   predicted    -0.6450911E-04 ( -31.12%)
   displ. norm   :     0.3020236 α      lambda       -0.1235502E-03
   maximum displ.:     0.1591982 α      in ANC's #4, #1, #2, ...

........................................................................
.............................. CYCLE   28 ..............................
........................................................................

 iter      E             dE          RMSdq      gap      omega  full diag
   1    -45.8349525 -0.458350E+02  0.882E-02    4.04       0.0  T
   2    -45.8349548 -0.228440E-05  0.518E-02    4.05       1.0  T
   3    -45.8349544  0.325436E-06  0.622E-03    4.05       2.8  T
   4    -45.8349553 -0.908140E-06  0.232E-03    4.05       7.5  T
   5    -45.8349554 -0.471145E-07  0.135E-03    4.05      12.9  T
   6    -45.8349554 -0.699438E-08  0.550E-04    4.05      31.7  T
   7    -45.8349554 -0.480140E-08  0.984E-05    4.05     177.0  T
     SCC iter.                  ...        0 min,  0.008 sec
     gradient                   ...        0 min,  0.014 sec
 * total energy  :   -45.1708138 Eh     change       -0.8167144E-04 Eh
   gradient norm :     0.0057986 Eh/α   predicted    -0.6743395E-04 ( -17.43%)
   displ. norm   :     0.1675734 α      lambda       -0.8202584E-04
   maximum displ.:     0.0932693 α      in ANC's #4, #1, #2, ...

........................................................................
.............................. CYCLE   29 ..............................
........................................................................

 iter      E             dE          RMSdq      gap      omega  full diag
   1    -45.8357196 -0.458357E+02  0.447E-02    4.05       0.0  T
   2    -45.8357201 -0.514797E-06  0.263E-02    4.05       1.0  T
   3    -45.8357198  0.375069E-06  0.434E-03    4.06       4.0  T
   4    -45.8357203 -0.577727E-06  0.117E-03    4.06      14.8  T
   5    -45.8357204 -0.667006E-08  0.698E-04    4.06      24.9  T
   6    -45.8357204 -0.305118E-08  0.185E-04    4.06      94.1  T
     SCC iter.                  ...        0 min,  0.007 sec
     gradient                   ...        0 min,  0.053 sec
 * total energy  :   -45.1708769 Eh     change       -0.6303838E-04 Eh
   gradient norm :     0.0057194 Eh/α   predicted    -0.4216489E-04 ( -33.11%)
   displ. norm   :     0.2087594 α      lambda       -0.1081492E-03
   maximum displ.:     0.1127618 α      in ANC's #4, #1, #2, ...

........................................................................
.............................. CYCLE   30 ..............................
........................................................................

 iter      E             dE          RMSdq      gap      omega  full diag
   1    -45.8362017 -0.458362E+02  0.580E-02    4.06       0.0  T
   2    -45.8362026 -0.869134E-06  0.342E-02    4.06       1.0  T
   3    -45.8362021  0.530140E-06  0.509E-03    4.06       3.4  T
   4    -45.8362029 -0.858374E-06  0.163E-03    4.06      10.7  T
   5    -45.8362029 -0.208377E-07  0.891E-04    4.06      19.5  T
   6    -45.8362029 -0.253969E-08  0.296E-04    4.06      58.9  T
     SCC iter.                  ...        0 min,  0.007 sec
     gradient                   ...        0 min,  0.014 sec
 * total energy  :   -45.1709560 Eh     change       -0.7912100E-04 Eh
   gradient norm :     0.0045026 Eh/α   predicted    -0.5643412E-04 ( -28.67%)
   displ. norm   :     0.2311103 α      lambda       -0.8073313E-04
   maximum displ.:     0.1179299 α      in ANC's #4, #1, #2, ...

........................................................................
.............................. CYCLE   31 ..............................
........................................................................

 iter      E             dE          RMSdq      gap      omega  full diag
   1    -45.8356336 -0.458356E+02  0.666E-02    4.05       0.0  T
   2    -45.8356347 -0.106287E-05  0.393E-02    4.05       1.0  T
   3    -45.8356340  0.695119E-06  0.607E-03    4.05       2.9  T
   4    -45.8356352 -0.117625E-05  0.184E-03    4.05       9.5  T
   5    -45.8356352 -0.497695E-08  0.104E-03    4.05      16.7  T
   6    -45.8356352 -0.114773E-07  0.210E-04    4.05      82.8  T
   7    -45.8356352 -0.533170E-09  0.681E-05    4.05     255.7  T
     SCC iter.                  ...        0 min,  0.008 sec
     gradient                   ...        0 min,  0.014 sec
 * total energy  :   -45.1710104 Eh     change       -0.5445973E-04 Eh
   gradient norm :     0.0052325 Eh/α   predicted    -0.4252339E-04 ( -21.92%)
   displ. norm   :     0.1560692 α      lambda       -0.1109262E-03
   maximum displ.:     0.0696659 α      in ANC's #9, #1, #2, ...

........................................................................
.............................. CYCLE   32 ..............................
........................................................................

 iter      E             dE          RMSdq      gap      omega  full diag
   1    -45.8372241 -0.458372E+02  0.455E-02    4.10       0.0  T
   2    -45.8372378 -0.136296E-04  0.269E-02    4.09       1.0  T
   3    -45.8372386 -0.805523E-06  0.135E-02    4.10       1.3  T
   4    -45.8372392 -0.629843E-06  0.274E-03    4.09       6.3  T
   5    -45.8372393 -0.124091E-06  0.990E-04    4.09      17.6  T
   6    -45.8372393 -0.161224E-07  0.588E-04    4.09      29.6  T
     SCC iter.                  ...        0 min,  0.046 sec
     gradient                   ...        0 min,  0.014 sec
 * total energy  :   -45.1710071 Eh     change        0.3356376E-05 Eh
   gradient norm :     0.0061024 Eh/α   predicted    -0.5681722E-04 (*******%)
   displ. norm   :     0.1752582 α      lambda       -0.1254486E-03
   maximum displ.:     0.0865961 α      in ANC's #1, #4, #7, ...

........................................................................
.............................. CYCLE   33 ..............................
........................................................................

 iter      E             dE          RMSdq      gap      omega  full diag
   1    -45.8355470 -0.458355E+02  0.560E-02    4.05       0.0  T
   2    -45.8355551 -0.804243E-05  0.333E-02    4.06       1.0  T
   3    -45.8355546  0.434923E-06  0.130E-02    4.06       1.3  T
   4    -45.8355564 -0.172266E-05  0.176E-03    4.06       9.9  T
   5    -45.8355564 -0.242233E-07  0.971E-04    4.06      17.9  T
   6    -45.8355564  0.107418E-08  0.480E-04    4.06      36.3  T
     SCC iter.                  ...        0 min,  0.007 sec
     gradient                   ...        0 min,  0.014 sec
 * total energy  :   -45.1710752 Eh     change       -0.6806192E-04 Eh
   gradient norm :     0.0046511 Eh/α   predicted    -0.6465216E-04 (  -5.01%)
   displ. norm   :     0.0409555 α      lambda       -0.2919366E-04
   maximum displ.:     0.0209904 α      in ANC's #4, #9, #7, ...

........................................................................
.............................. CYCLE   34 ..............................
........................................................................

 iter      E             dE          RMSdq      gap      omega  full diag
   1    -45.8359987 -0.458360E+02  0.130E-02    4.07       0.0  T
   2    -45.8359989 -0.192166E-06  0.767E-03    4.07       2.3  T
   3    -45.8359989  0.660232E-07  0.250E-03    4.07       7.0  T
   4    -45.8359990 -0.108030E-06  0.350E-04    4.07      49.7  T
   5    -45.8359990 -0.150735E-08  0.209E-04    4.07      83.2  T
     SCC iter.                  ...        0 min,  0.006 sec
     gradient                   ...        0 min,  0.014 sec
 * total energy  :   -45.1710968 Eh     change       -0.2168893E-04 Eh
   gradient norm :     0.0031968 Eh/α   predicted    -0.1462344E-04 ( -32.58%)
   displ. norm   :     0.1322707 α      lambda       -0.4206366E-04
   maximum displ.:     0.0815559 α      in ANC's #7, #1, #2, ...

........................................................................
.............................. CYCLE   35 ..............................
........................................................................

 iter      E             dE          RMSdq      gap      omega  full diag
   1    -45.8361239 -0.458361E+02  0.373E-02    4.07       0.0  T
   2    -45.8361243 -0.355164E-06  0.219E-02    4.07       1.0  T
   3    -45.8361242  0.101743E-06  0.281E-03    4.07       6.2  T
   4    -45.8361244 -0.250030E-06  0.116E-03    4.07      15.0  T
   5    -45.8361244 -0.124501E-07  0.581E-04    4.07      30.0  T
   6    -45.8361244 -0.486246E-09  0.194E-04    4.07      89.7  T
     SCC iter.                  ...        0 min,  0.034 sec
     gradient                   ...        0 min,  0.014 sec
 * total energy  :   -45.1711236 Eh     change       -0.2677563E-04 Eh
   gradient norm :     0.0031938 Eh/α   predicted    -0.2140403E-04 ( -20.06%)
   displ. norm   :     0.0709840 α      lambda       -0.2031301E-04
   maximum displ.:     0.0387023 α      in ANC's #7, #1, #2, ...

........................................................................
.............................. CYCLE   36 ..............................
........................................................................

 iter      E             dE          RMSdq      gap      omega  full diag
   1    -45.8364915 -0.458365E+02  0.215E-02    4.08       0.0  T
   2    -45.8364919 -0.443496E-06  0.127E-02    4.08       1.4  T
   3    -45.8364918  0.160015E-06  0.357E-03    4.08       4.9  T
   4    -45.8364920 -0.268253E-06  0.776E-04    4.08      22.4  T
   5    -45.8364920 -0.708625E-08  0.459E-04    4.08      37.9  T
     SCC iter.                  ...        0 min,  0.006 sec
     gradient                   ...        0 min,  0.014 sec
 * total energy  :   -45.1711386 Eh     change       -0.1500596E-04 Eh
   gradient norm :     0.0022892 Eh/α   predicted    -0.1020847E-04 ( -31.97%)
   displ. norm   :     0.1609035 α      lambda       -0.2547841E-04
   maximum displ.:     0.0863957 α      in ANC's #1, #7, #2, ...

........................................................................
.............................. CYCLE   37 ..............................
........................................................................

 iter      E             dE          RMSdq      gap      omega  full diag
   1    -45.8363419 -0.458363E+02  0.464E-02    4.08       0.0  T
   2    -45.8363425 -0.593740E-06  0.273E-02    4.08       1.0  T
   3    -45.8363423  0.228853E-06  0.396E-03    4.08       4.4  T
   4    -45.8363428 -0.502845E-06  0.147E-03    4.08      11.8  T
   5    -45.8363428 -0.127232E-07  0.782E-04    4.08      22.3  T
   6    -45.8363428 -0.206039E-08  0.229E-04    4.08      76.1  T
     SCC iter.                  ...        0 min,  0.007 sec
     gradient                   ...        0 min,  0.014 sec
 * total energy  :   -45.1711567 Eh     change       -0.1802831E-04 Eh
   gradient norm :     0.0021965 Eh/α   predicted    -0.1307229E-04 ( -27.49%)
   displ. norm   :     0.1145219 α      lambda       -0.2830533E-04
   maximum displ.:     0.0556438 α      in ANC's #1, #14, #2, ...

........................................................................
.............................. CYCLE   38 ..............................
........................................................................

 iter      E             dE          RMSdq      gap      omega  full diag
   1    -45.8367173 -0.458367E+02  0.361E-02    4.09       0.0  T
   2    -45.8367179 -0.633083E-06  0.213E-02    4.09       1.0  T
   3    -45.8367175  0.435993E-06  0.487E-03    4.09       3.6  T
   4    -45.8367182 -0.692369E-06  0.124E-03    4.09      14.0  T
   5    -45.8367182 -0.917611E-08  0.751E-04    4.09      23.2  T
   6    -45.8367182 -0.401079E-08  0.220E-04    4.09      79.0  T
     SCC iter.                  ...        0 min,  0.032 sec
     gradient                   ...        0 min,  0.014 sec
 * total energy  :   -45.1711747 Eh     change       -0.1808168E-04 Eh
   gradient norm :     0.0008822 Eh/α   predicted    -0.1433997E-04 ( -20.69%)
   displ. norm   :     0.1919944 α      lambda       -0.1341079E-04
   maximum displ.:     0.0919180 α      in ANC's #1, #14, #2, ...

........................................................................
.............................. CYCLE   39 ..............................
........................................................................

 iter      E             dE          RMSdq      gap      omega  full diag
   1    -45.8357670 -0.458358E+02  0.632E-02    4.07       0.0  T
   2    -45.8357687 -0.172800E-05  0.374E-02    4.08       1.0  T
   3    -45.8357674  0.131773E-05  0.828E-03    4.07       2.1  T
   4    -45.8357695 -0.206216E-05  0.208E-03    4.08       8.4  T
   5    -45.8357695 -0.123240E-07  0.127E-03    4.08      13.7  T
   6    -45.8357695 -0.148069E-07  0.189E-04    4.08      92.1  T
   7    -45.8357695 -0.383864E-09  0.813E-05    4.08     214.2  T
     SCC iter.                  ...        0 min,  0.008 sec
     gradient                   ...        0 min,  0.014 sec
 * total energy  :   -45.1711689 Eh     change        0.5866705E-05 Eh
   gradient norm :     0.0049398 Eh/α   predicted    -0.6823476E-05 (-216.31%)
   displ. norm   :     0.0701260 α      lambda       -0.2894382E-04
   maximum displ.:     0.0381737 α      in ANC's #1, #2, #7, ...

........................................................................
.............................. CYCLE   40 ..............................
........................................................................

 iter      E             dE          RMSdq      gap      omega  full diag
   1    -45.8365997 -0.458366E+02  0.209E-02    4.10       0.0  T
   2    -45.8366004 -0.667220E-06  0.125E-02    4.09       1.4  T
   3    -45.8366002  0.181931E-06  0.440E-03    4.09       4.0  T
   4    -45.8366006 -0.340738E-06  0.726E-04    4.09      24.0  T
   5    -45.8366006 -0.195250E-08  0.454E-04    4.09      38.3  T
     SCC iter.                  ...        0 min,  0.006 sec
     gradient                   ...        0 min,  0.014 sec
 * total energy  :   -45.1711845 Eh     change       -0.1566729E-04 Eh
   gradient norm :     0.0006309 Eh/α   predicted    -0.1454775E-04 (  -7.15%)
   displ. norm   :     0.0507364 α      lambda       -0.2719456E-05
   maximum displ.:     0.0322878 α      in ANC's #1, #2, #4, ...

........................................................................
.............................. CYCLE   41 ..............................
........................................................................

 iter      E             dE          RMSdq      gap      omega  full diag
   1    -45.8367455 -0.458367E+02  0.115E-02    4.10       0.0  T
   2    -45.8367456 -0.136492E-06  0.676E-03    4.10       2.6  T
   3    -45.8367456  0.188775E-07  0.154E-03    4.10      11.3  T
   4    -45.8367456 -0.373487E-07  0.346E-04    4.09      50.4  T
   5    -45.8367456 -0.140518E-08  0.188E-04    4.09      92.8  T
     SCC iter.                  ...        0 min,  0.006 sec
     gradient                   ...        0 min,  0.014 sec
 * total energy  :   -45.1711869 Eh     change       -0.2410304E-05 Eh
   gradient norm :     0.0005223 Eh/α   predicted    -0.1365953E-05 ( -43.33%)
   displ. norm   :     0.0316307 α      lambda       -0.2730974E-05
   maximum displ.:     0.0184123 α      in ANC's #1, #2, #9, ...

   *** GEOMETRY OPTIMIZATION CONVERGED AFTER 41 ITERATIONS ***

------------------------------------------------------------------------
 total energy gain   :        -0.0074211 Eh       -4.6568 kcal/mol
 total RMSD          :         0.7109002 a0        0.3762 Å
 total power (kW/mol):        -0.4752201 (step)  -12.5680 (real)
------------------------------------------------------------------------

 ANCopt (total)                0 d,  0 h,  0 min,  1.550 sec
 optimizer setup                ...        0 min,  0.000 sec (  0.005%)
 model hessian                  ...        0 min,  0.050 sec (  3.216%)
 ANC generation                 ...        0 min,  0.002 sec (  0.125%)
 coordinate transformation      ...        0 min,  0.000 sec (  0.013%)
 single point calculation       ...        0 min,  1.489 sec ( 96.023%)
 optimization log               ...        0 min,  0.005 sec (  0.341%)
 hessian update                 ...        0 min,  0.000 sec (  0.025%)
 rational function              ...        0 min,  0.003 sec (  0.178%)

================
 final structure:
================
33
 xtb: 6.7.1 (edcfbbe)
C           -3.20726759601333        1.38583170147896       -0.41653438163134
C           -3.38292918330485       -0.12495861859681       -0.53734048630974
C           -2.31054758977673       -0.74848812342529       -1.45445714007358
C           -0.90910760321591       -0.56599700078297       -0.94898104291976
C           -0.16135108036884        0.55090564697614       -1.30418783116063
C            1.12273067241634        0.73056155850831       -0.82570871118351
C            1.69718609569265       -0.20843975274870        0.02171730782793
C            3.10112845975786       -0.01027891816939        0.55452615742133
C            4.01184390836255        0.11316896362675       -0.64765137979081
O            4.51585007093682       -1.07497696480680       -1.00595363289704
O            4.25056460412427        1.12343736200495       -1.25205136984546
C            3.19525674551193        1.23388708789965        1.43808310699843
C            0.96243816683452       -1.33372484076996        0.36630673777633
C           -0.32361594199546       -1.50785475119558       -0.11224179537853
C           -3.38089674323886       -0.77069438308383        0.84508284435298
H           -3.22181155207908        1.85581555768667       -1.39747068202933
H           -4.01368770019229        1.81139487442936        0.17669269650455
H           -2.26308344860088        1.62252535800692        0.06833080817986
H           -4.35437475041356       -0.32142690889598       -1.00680501769260
H           -2.52270719038708       -1.81558382658575       -1.55287777857871
H           -2.39926220731063       -0.29345430877488       -2.44352089943168
H           -0.58562470819838        1.28626294524626       -1.97225887807474
H            1.69129797846769        1.59822702143091       -1.12518538432308
H            3.39810598613486       -0.90147075407221        1.11353768362027
H            5.05857984338351       -0.98616783935086       -1.80526725413695
H            2.44014031669615        1.19290589210249        2.21921437296289
H            4.17802745402607        1.29618461766718        1.89996963055707
H            3.03921945662124        2.12800083173058        0.84103537908648
H            1.39833104389162       -2.08206896430349        1.01294786026607
H           -0.87580645551824       -2.39482825241608        0.16300685757650
H           -2.43798830043939       -0.58102682988773        1.35273806346670
H           -3.52501193615177       -1.84630387604865        0.76915673483709
H           -4.18552681565129       -0.36146450488042        1.45214742402311

 Bond Distances (Angstroems)
 ---------------------------
C1-C2=1.5258         C1-H16=1.0878        C1-H17=1.0878        C1-H18=1.0875        C2-C1=1.5258         C2-C3=1.5427         
C2-C15=1.5258        C2-H19=1.0967        C3-C2=1.5427         C3-C4=1.5009         C3-H20=1.0924        C3-H21=1.0923        
C4-C3=1.5009         C4-C5=1.3902         C4-C14=1.3893        C5-C4=1.3902         C5-C6=1.3821         C5-H22=1.0803        
C6-C5=1.3821         C6-C7=1.3892         C6-H23=1.0797        C7-C6=1.3892         C7-C8=1.5147         C7-C13=1.3874        
C8-C7=1.5147         C8-C9=1.5132         C8-C12=1.5289        C8-H24=1.0931        C9-C8=1.5132         C9-O10=1.3394        
C9-O11=1.2012        O10-C9=1.3394        O10-H25=0.9702       O11-C9=1.2012        C12-C8=1.5289        C12-H26=1.0872       
C12-H27=1.0877       C12-H28=1.0864       C13-C7=1.3874        C13-C14=1.3832       C13-H29=1.0808       C14-C4=1.3893        
C14-C13=1.3832       C14-H30=1.0805       C15-C2=1.5258        C15-H31=1.0875       C15-H32=1.0879       C15-H33=1.0879       
H16-C1=1.0878        H17-C1=1.0878        H18-C1=1.0875        H19-C2=1.0967        H20-C3=1.0924        H21-C3=1.0923        
H22-C5=1.0803        H23-C6=1.0797        H24-C8=1.0931        H25-O10=0.9702       H26-C12=1.0872       H27-C12=1.0877       
H28-C12=1.0864       H29-C13=1.0808       H30-C14=1.0805       H31-C15=1.0875       H32-C15=1.0879       H33-C15=1.0879       
 C  H  Rav=1.0873 sigma=0.0047  Rmin=1.0797  Rmax=1.0967    17
 C  C  Rav=1.4595 sigma=0.0679  Rmin=1.3821  Rmax=1.5427    13
 O  H  Rav=0.9702 sigma=0.0000  Rmin=0.9702  Rmax=0.9702     1
 O  C  Rav=1.2703 sigma=0.0691  Rmin=1.2012  Rmax=1.3394     2

 selected bond angles (degree)
 --------------------
H16-C1-C2=110.79               H17-C1-C2=110.19               H17-C1-H16=108.23              H18-C1-C2=110.54               
H18-C1-H16=108.64              H18-C1-H17=108.38              C3-C2-C1=111.55                C15-C2-C1=110.31               
C15-C2-C3=111.51               H19-C2-C1=108.26               H19-C2-C3=106.79               H19-C2-C15=108.25              
C4-C3-C2=113.56                H20-C3-C2=108.26               H20-C3-C4=109.30               H21-C3-C2=108.27               
H21-C3-C4=109.28               H21-C3-H20=108.03              C5-C4-C3=120.92                C14-C4-C3=120.92               
C14-C4-C5=118.16               C6-C5-C4=121.04                H22-C5-C4=119.58               H22-C5-C6=119.37               
C7-C6-C5=120.50                H23-C6-C5=119.85               H23-C6-C7=119.64               C8-C7-C6=120.63                
C13-C7-C6=118.73               C13-C7-C8=120.64               C9-C8-C7=106.80                C12-C8-C7=111.52               
C12-C8-C9=110.83               H24-C8-C7=108.97               H24-C8-C9=108.02               H24-C8-C12=110.56              
O10-C9-C8=111.51               O11-C9-C8=126.01               O11-C9-O10=122.46              H25-O10-C9=110.47              

 selected dihedral angles (degree)
 ---------------------------------
C3-C2-C1-H16= 56.30           C3-C2-C1-H17=176.04           C3-C2-C1-H18=295.82           C15-C2-C1-H16=180.81          
C15-C2-C1-H17=300.55          C15-C2-C1-H18= 60.32          H19-C2-C1-H16=299.09          H19-C2-C1-H17= 58.83          
H19-C2-C1-H18=178.61          C4-C3-C2-C1= 61.92            C4-C3-C2-C15=298.08           C4-C3-C2-H19=180.01           
H20-C3-C2-C1=183.49           H20-C3-C2-C15= 59.65          H20-C3-C2-H19=301.58          H21-C3-C2-C1=300.37           
H21-C3-C2-C15=176.54          H21-C3-C2-H19= 58.47          C5-C4-C3-C2=270.31            C5-C4-C3-H20=149.33           
C5-C4-C3-H21= 31.30           C14-C4-C3-C2= 90.26           C14-C4-C3-H20=329.27          C14-C4-C3-H21=211.24          
C6-C5-C4-C3=179.11            C6-C5-C4-C14=359.17           H22-C5-C4-C3=358.52           H22-C5-C4-C14=178.57          
C7-C6-C5-C4=  0.19            C7-C6-C5-H22=180.78           H23-C6-C5-C4=179.14           H23-C6-C5-H22=359.73          
C8-C7-C6-C5=180.37            C8-C7-C6-H23=  1.42           C13-C7-C6-C5=  0.63           C13-C7-C6-H23=181.68          
C9-C8-C7-C6=302.13            C9-C8-C7-C13=121.87           C12-C8-C7-C6= 63.36           C12-C8-C7-C13=243.10          
H24-C8-C7-C6=185.68           H24-C8-C7-C13=  5.42          O10-C9-C8-C7=267.90           O10-C9-C8-C12=146.24          
O10-C9-C8-H24= 24.98          O11-C9-C8-C7= 86.10           O11-C9-C8-C12=324.44          O11-C9-C8-H24=203.18          
H25-O10-C9-C8=176.97          H25-O10-C9-O11=358.70         
           -------------------------------------------------
          |                Final Singlepoint                |
           -------------------------------------------------

          ...................................................
          :                      SETUP                      :
          :.................................................:
          :  # basis functions                  78          :
          :  # atomic orbitals                  78          :
          :  # shells                           48          :
          :  # electrons                        82          :
          :  max. iterations                   250          :
          :  Hamiltonian                  GFN2-xTB          :
          :  restarted?                      false          :
          :  GBSA solvation                  false          :
          :  PC potential                    false          :
          :  electronic temp.          300.0000000     K    :
          :  accuracy                    1.0000000          :
          :  -> integral cutoff          0.2500000E+02      :
          :  -> integral neglect         0.1000000E-07      :
          :  -> SCF convergence          0.1000000E-05 Eh   :
          :  -> wf. convergence          0.1000000E-03 e    :
          :  Broyden damping             0.4000000          :
          :  net charge                          0          :
          :  unpaired electrons                  0          :
          ...................................................

 iter      E             dE          RMSdq      gap      omega  full diag
   1    -45.8367456 -0.458367E+02  0.988E-05    4.09       0.0  T
   2    -45.8367456 -0.107441E-09  0.639E-05    4.09     272.5  T
   3    -45.8367456 -0.836096E-10  0.367E-05    4.09     474.2  T

   *** convergence criteria satisfied after 3 iterations ***

         #    Occupation            Energy/Eh            Energy/eV
      -------------------------------------------------------------
         1        2.0000           -0.7444274             -20.2569
       ...           ...                  ...                  ...
        35        2.0000           -0.4347446             -11.8300
        36        2.0000           -0.4322048             -11.7609
        37        2.0000           -0.4233130             -11.5189
        38        2.0000           -0.4155814             -11.3085
        39        2.0000           -0.4099146             -11.1543
        40        2.0000           -0.4014437             -10.9238
        41        2.0000           -0.3877491             -10.5512 (HOMO)
        42                         -0.2372660              -6.4563 (LUMO)
        43                         -0.2199382              -5.9848
        44                         -0.2147575              -5.8438
        45                         -0.0938195              -2.5530
        46                          0.0488941               1.3305
       ...                                ...                  ...
        78                          0.6585578              17.9203
      -------------------------------------------------------------
                  HL-Gap            0.1504831 Eh            4.0949 eV
             Fermi-level           -0.3125075 Eh           -8.5038 eV

 SCC (total)                   0 d,  0 h,  0 min,  0.022 sec
 SCC setup                      ...        0 min,  0.000 sec (  0.847%)
 Dispersion                     ...        0 min,  0.000 sec (  0.816%)
 classical contributions        ...        0 min,  0.000 sec (  0.387%)
 integral evaluation            ...        0 min,  0.004 sec ( 19.638%)
 iterations                     ...        0 min,  0.003 sec ( 15.529%)
 molecular gradient             ...        0 min,  0.014 sec ( 62.344%)
 printout                       ...        0 min,  0.000 sec (  0.408%)

         :::::::::::::::::::::::::::::::::::::::::::::::::::::
         ::                     SUMMARY                     ::
         :::::::::::::::::::::::::::::::::::::::::::::::::::::
         :: total energy             -45.171186945950 Eh    ::
         :: gradient norm              0.000522018230 Eh/a0 ::
         :: HOMO-LUMO gap              4.094854121547 eV    ::
         ::.................................................::
         :: SCC energy               -45.836508127673 Eh    ::
         :: -> isotropic ES            0.052082656803 Eh    ::
         :: -> anisotropic ES          0.006388546185 Eh    ::
         :: -> anisotropic XC          0.018417732079 Eh    ::
         :: -> dispersion             -0.030204970908 Eh    ::
         :: repulsion energy           0.665321181723 Eh    ::
         :: add. restraining           0.000000000000 Eh    ::
         :: total charge               0.000000000000 e     ::
         :::::::::::::::::::::::::::::::::::::::::::::::::::::

           -------------------------------------------------
          |                Property Printout                |
           -------------------------------------------------

    * Orbital Energies and Occupations

         #    Occupation            Energy/Eh            Energy/eV
      -------------------------------------------------------------
         1        2.0000           -0.7444274             -20.2569
       ...           ...                  ...                  ...
        29        2.0000           -0.4666021             -12.6969
        30        2.0000           -0.4621585             -12.5760
        31        2.0000           -0.4594318             -12.5018
        32        2.0000           -0.4523863             -12.3101
        33        2.0000           -0.4479378             -12.1890
        34        2.0000           -0.4399262             -11.9710
        35        2.0000           -0.4347446             -11.8300
        36        2.0000           -0.4322048             -11.7609
        37        2.0000           -0.4233130             -11.5189
        38        2.0000           -0.4155814             -11.3085
        39        2.0000           -0.4099146             -11.1543
        40        2.0000           -0.4014437             -10.9238
        41        2.0000           -0.3877491             -10.5512 (HOMO)
        42                         -0.2372660              -6.4563 (LUMO)
        43                         -0.2199382              -5.9848
        44                         -0.2147575              -5.8438
        45                         -0.0938195              -2.5530
        46                          0.0488941               1.3305
        47                          0.0833946               2.2693
        48                          0.0900489               2.4504
        49                          0.0925715               2.5190
        50                          0.1067506               2.9048
        51                          0.1194048               3.2492
        52                          0.1321874               3.5970
       ...                                ...                  ...
        78                          0.6585578              17.9203
      -------------------------------------------------------------
                  HL-Gap            0.1504831 Eh            4.0949 eV
             Fermi-level           -0.3125075 Eh           -8.5038 eV

     #   Z          covCN         q      C6AA      α(0)
     1   6 C        3.755    -0.106    22.577     6.775
     2   6 C        3.849    -0.005    20.638     6.462
     3   6 C        3.809    -0.067    21.785     6.644
     4   6 C        2.967     0.016    27.651     8.625
     5   6 C        2.925    -0.038    28.936     8.822
     6   6 C        2.922    -0.039    28.973     8.827
     7   6 C        2.981     0.009    27.812     8.651
     8   6 C        3.858    -0.042    21.293     6.563
     9   6 C        2.700     0.363    20.842     7.472
    10   8 O        1.660    -0.381    20.484     6.110
    11   8 O        0.856    -0.410    21.876     6.271
    12   6 C        3.756    -0.103    22.521     6.766
    13   6 C        2.922    -0.039    28.977     8.828
    14   6 C        2.925    -0.038    28.956     8.825
    15   6 C        3.755    -0.106    22.573     6.774
    16   1 H        0.925     0.033     2.545     2.495
    17   1 H        0.925     0.034     2.533     2.489
    18   1 H        0.925     0.039     2.465     2.455
    19   1 H        0.924     0.027     2.629     2.536
    20   1 H        0.924     0.036     2.497     2.471
    21   1 H        0.924     0.037     2.489     2.467
    22   1 H        0.926     0.035     2.515     2.480
    23   1 H        0.926     0.045     2.388     2.417
    24   1 H        0.924     0.058     2.226     2.333
    25   1 H        0.804     0.327     0.644     1.261
    26   1 H        0.925     0.045     2.382     2.414
    27   1 H        0.925     0.043     2.416     2.431
    28   1 H        0.925     0.060     2.199     2.319
    29   1 H        0.926     0.030     2.583     2.513
    30   1 H        0.926     0.034     2.534     2.489
    31   1 H        0.925     0.038     2.472     2.459
    32   1 H        0.925     0.032     2.553     2.499
    33   1 H        0.925     0.034     2.533     2.489

 Mol. C6AA /au·bohr⁶  :      10238.026377
 Mol. C8AA /au·bohr⁸  :     234146.191411
 Mol. α(0) /au        :        155.428716


Wiberg/Mayer (AO) data.
largest (>0.10) Wiberg bond orders for each atom

 ---------------------------------------------------------------------------
     #   Z sym  total        # sym  WBO       # sym  WBO       # sym  WBO
 ---------------------------------------------------------------------------
     1   6 C    3.997 --     2 C    1.011    16 H    0.986    17 H    0.986
                            18 H    0.985
     2   6 C    3.995 --     1 C    1.011    15 C    1.011     3 C    0.974
                            19 H    0.969
     3   6 C    3.997 --     4 C    1.016     2 C    0.974    20 H    0.972
                            21 H    0.972
     4   6 C    3.987 --    14 C    1.410     5 C    1.405     3 C    1.016
                             7 C    0.105
     5   6 C    3.992 --     6 C    1.453     4 C    1.405    22 H    0.968
                            13 C    0.107
     6   6 C    3.991 --     5 C    1.453     7 C    1.406    23 H    0.967
                            14 C    0.109
     7   6 C    3.985 --    13 C    1.412     6 C    1.406     8 C    0.967
                             4 C    0.105
     8   6 C    3.992 --    12 C    0.991     7 C    0.967    24 H    0.962
                             9 C    0.955
     9   6 C    3.907 --    11 O    1.766    10 O    1.128     8 C    0.955
    10   8 O    2.195 --     9 C    1.128    25 H    0.867    11 O    0.170
    11   8 O    2.040 --     9 C    1.766    10 O    0.170
    12   6 C    3.992 --     8 C    0.991    26 H    0.986    27 H    0.986
                            28 H    0.983
    13   6 C    3.991 --    14 C    1.445     7 C    1.412    29 H    0.968
                             5 C    0.107
    14   6 C    3.990 --    13 C    1.445     4 C    1.410    30 H    0.968
                             6 C    0.109
    15   6 C    3.997 --     2 C    1.011    32 H    0.987    33 H    0.986
                            31 H    0.985
    16   1 H    0.999 --     1 C    0.986
    17   1 H    0.999 --     1 C    0.986
    18   1 H    0.998 --     1 C    0.985
    19   1 H    0.999 --     2 C    0.969
    20   1 H    0.998 --     3 C    0.972
    21   1 H    0.998 --     3 C    0.972
    22   1 H    0.998 --     5 C    0.968
    23   1 H    0.998 --     6 C    0.967
    24   1 H    0.996 --     8 C    0.962
    25   1 H    0.893 --    10 O    0.867
    26   1 H    0.998 --    12 C    0.986
    27   1 H    0.997 --    12 C    0.986
    28   1 H    0.996 --    12 C    0.983
    29   1 H    0.999 --    13 C    0.968
    30   1 H    0.998 --    14 C    0.968
    31   1 H    0.999 --    15 C    0.985
    32   1 H    0.999 --    15 C    0.987
    33   1 H    0.999 --    15 C    0.986
 ---------------------------------------------------------------------------

Topologies differ in total number of bonds
Writing topology from bond orders to xtbtopo.mol

[...]
   the terms of the GNU Lesser General Public License as published by
   the Free Software Foundation, either version 3 of the License, or
   (at your option) any later version.
   
   xtb is distributed in the hope that it will be useful,
   but WITHOUT ANY WARRANTY; without even the implied warranty of
   MERCHANTABILITY or FITNESS FOR A PARTICULAR PURPOSE.  See the
   GNU Lesser General Public License for more details.
   
   Cite this work as:
   * C. Bannwarth, E. Caldeweyher, S. Ehlert, A. Hansen, P. Pracht,
     J. Seibert, S. Spicher, S. Grimme, WIREs Comput. Mol. Sci., 2020, 11,
     e01493. DOI: 10.1002/wcms.1493
   
   for GFN2-xTB:
   * C. Bannwarth, S. Ehlert and S. Grimme., J. Chem. Theory Comput., 2019,
     15, 1652-1671. DOI: 10.1021/acs.jctc.8b01176
   for GFN1-xTB:
   * S. Grimme, C. Bannwarth, P. Shushkov, J. Chem. Theory Comput., 2017,
     13, 1989-2009. DOI: 10.1021/acs.jctc.7b00118
   for GFN0-xTB:
   * P. Pracht, E. Caldeweyher, S. Ehlert, S. Grimme, ChemRxiv, 2019, preprint.
     DOI: 10.26434/chemrxiv.8326202.v1
   for GFN-FF:
   * S. Spicher and S. Grimme, Angew. Chem. Int. Ed., 2020, 59, 15665-15673.
     DOI: 10.1002/anie.202004239
   
   for ALPB and GBSA implicit solvation:
   * S. Ehlert, M. Stahn, S. Spicher, S. Grimme, J. Chem. Theory Comput.,
     2021, 17, 4250-4261. DOI: 10.1021/acs.jctc.1c00471
   
   for ddCOSMO and CPCM-X implicit solvation:
   * M. Stahn, S. Ehlert, S. Grimme, J. Phys. Chem. A,
     2023, XX, XXXX-XXXX. DOI: 10.1021/acs.jpca.3c04382
   
   for DFT-D4:
   * E. Caldeweyher, C. Bannwarth and S. Grimme, J. Chem. Phys., 2017,
     147, 034112. DOI: 10.1063/1.4993215
   * E. Caldeweyher, S. Ehlert, A. Hansen, H. Neugebauer, S. Spicher,
     C. Bannwarth and S. Grimme, J. Chem. Phys., 2019, 150, 154122.
     DOI: 10.1063/1.5090222
   * E. Caldeweyher, J.-M. Mewes, S. Ehlert and S. Grimme, Phys. Chem. Chem. Phys.
     2020, 22, 8499-8512. DOI: 10.1039/D0CP00502A
   
   for sTDA-xTB:
   * S. Grimme and C. Bannwarth, J. Chem. Phys., 2016, 145, 054103.
     DOI: 10.1063/1.4959605
   
   in the mass-spec context:
   * V. Asgeirsson, C. Bauer and S. Grimme, Chem. Sci., 2017, 8, 4879.
     DOI: 10.1039/c7sc00601b
   * J. Koopman and S. Grimme, ACS Omega 2019, 4, 12, 15120-15133.
     DOI: 10.1021/acsomega.9b02011
   
   for metadynamics refer to:
   * S. Grimme, J. Chem. Theory Comput., 2019, 155, 2847-2862
     DOI: 10.1021/acs.jctc.9b00143
   
   for SPH calculations refer to:
   * S. Spicher and S. Grimme, J. Chem. Theory Comput., 2021, 17, 1701-1714
     DOI: 10.1021/acs.jctc.0c01306
   
   for ONIOM refer to:
   * C. Plett, A. Katbashev, S. Ehlert, S. Grimme, M. Bursch,
     Phys. Chem. Chem. Phys., 2023, 25, 17860-17868. DOI: 10.1039/D3CP02178E
   
   for DIPRO refer to:
   * J. Kohn, N. Gildemeister, S. Grimme, D. Fazzi, A. Hansen,
     J. Chem. Phys., 2023, just accepted.
   
   for PTB refer to:
   * S. Grimme, M. Mueller, A. Hansen, J. Chem. Phys., 2023, 158, 124111.
     DOI: 10.1063/5.0137838
   
   with help from (in alphabetical order)
   P. Atkinson, C. Bannwarth, F. Bohle, G. Brandenburg, E. Caldeweyher
   M. Checinski, S. Dohm, S. Ehlert, S. Ehrlich, I. Gerasimov, C. Hölzer
   A. Katbashev, J. Kohn, J. Koopman, C. Lavigne, S. Lehtola, F. März, M. Müller,
   F. Musil, H. Neugebauer, J. Pisarek, C. Plett, P. Pracht, F. Pultar,
   J. Seibert, P. Shushkov, S. Spicher, M. Stahn, M. Steiner, T. Strunk,
   J. Stückrath, T. Rose, and J. Unsleber
   
 * started run on 2025/05/15 at 16:32:49.837     
   ID    Z sym.   atoms
    1    6 C      1-9, 12-15
    2    8 O      10, 11
    3    1 H      16-33

           -------------------------------------------------
          |                Calculation Setup                |
           -------------------------------------------------

          program call               : xtb /rds/general/user/hgt20/home/callum/QDESCP/Ibuprofen_rdkit_conf_12/Ibuprofen_rdkit_conf_12.xyz --acc 1 --gfn 2 --chrg 0 --uhf 2 --etemp 300 --input /rds/general/user/hgt20/home/callum/QDESCP/Ibuprofen_rdkit_conf_12/Ibuprofen_rdkit_conf_12_xtb.inp -P 1
          hostname                   : login-c
          coordinate file            : /rds/general/user/hgt20/home/callum/QDESCP/Ibuprofen_rdkit_conf_12/Ibuprofen_rdkit_conf_12.xyz
          omp threads                :                     1


           -------------------------------------------------
          |                 G F N 2 - x T B                 |
           -------------------------------------------------

        Reference                      10.1021/acs.jctc.8b01176
      * Hamiltonian:
        H0-scaling (s, p, d)           1.850000    2.230000    2.230000
        zeta-weighting                 0.500000
      * Dispersion:
        s8                             2.700000
        a1                             0.520000
        a2                             5.000000
        s9                             5.000000
      * Repulsion:
        kExp                           1.500000    1.000000
        rExp                           1.000000
      * Coulomb:
        alpha                          2.000000
        third order                    shell-resolved
        anisotropic                    true
        a3                             3.000000
        a5                             4.000000
        cn-shift                       1.200000
        cn-exp                         4.000000
        max-rad                        5.000000


          ...................................................
          :                      SETUP                      :
          :.................................................:
          :  # basis functions                  78          :
          :  # atomic orbitals                  78          :
          :  # shells                           48          :
          :  # electrons                        82          :
          :  max. iterations                   250          :
          :  Hamiltonian                  GFN2-xTB          :
          :  restarted?                      false          :
          :  GBSA solvation                  false          :
          :  PC potential                    false          :
          :  electronic temp.          300.0000000     K    :
          :  accuracy                    1.0000000          :
          :  -> integral cutoff          0.2500000E+02      :
          :  -> integral neglect         0.1000000E-07      :
          :  -> SCF convergence          0.1000000E-05 Eh   :
          :  -> wf. convergence          0.1000000E-03 e    :
          :  Broyden damping             0.4000000          :
          :  net charge                          0          :
          :  unpaired electrons                  2          :
          ...................................................

 iter      E             dE          RMSdq      gap      omega  full diag
   1    -45.5860966 -0.455861E+02  0.333E+00    0.02       0.0  T
   2    -45.4593264  0.126770E+00  0.308E+00    0.59       1.0  T
   3    -45.3817923  0.775341E-01  0.219E+00    0.21       1.0  T
   4    -45.4917137 -0.109921E+00  0.220E+00    0.91       1.0  T
   5    -45.6309388 -0.139225E+00  0.152E+00    0.47       1.0  T
   6    -45.6478820 -0.169431E-01  0.876E-01    0.37       1.0  T
   7    -45.6702246 -0.223427E-01  0.687E-01    0.21       1.0  T
   8    -45.6743455 -0.412085E-02  0.504E-01    0.21       1.0  T
   9    -45.6766781 -0.233265E-02  0.321E-01    0.22       1.0  T
  10    -45.6777244 -0.104628E-02  0.104E-01    0.18       1.0  T
  11    -45.6779632 -0.238828E-03  0.671E-02    0.17       1.0  T
  12    -45.6781655 -0.202301E-03  0.226E-02    0.17       1.0  T
  13    -45.6781701 -0.457668E-05  0.153E-02    0.17       1.1  T
  14    -45.6781727 -0.257903E-05  0.572E-03    0.17       3.0  T
  15    -45.6781740 -0.135570E-05  0.326E-03    0.17       5.3  T
  16    -45.6781746 -0.503386E-06  0.119E-03    0.17      14.7  T
  17    -45.6781746 -0.691610E-07  0.374E-04    0.17      46.6  T
  18    -45.6781746 -0.516646E-08  0.118E-04    0.17     146.9  T

   *** convergence criteria satisfied after 18 iterations ***

         #    Occupation            Energy/Eh            Energy/eV
      -------------------------------------------------------------
         1        2.0000           -0.7286012             -19.8262
       ...           ...                  ...                  ...
        36        2.0000           -0.4381474             -11.9226
        37        2.0000           -0.4227703             -11.5042
        38        2.0000           -0.4188807             -11.3983
        39        2.0000           -0.4068649             -11.0714
        40        1.9995           -0.4033866             -10.9767
        41        1.0005           -0.3888867             -10.5821
        42        0.9623           -0.2282555              -6.2111 (HOMO)
        43        0.0377           -0.2221002              -6.0437 (LUMO)
        44                         -0.2072579              -5.6398
        45                         -0.0954258              -2.5967
        46                          0.0579975               1.5782
        47                          0.0778238               2.1177
       ...                                ...                  ...
        78                          0.6697897              18.2259
      -------------------------------------------------------------
                  HL-Gap            0.0061553 Eh            0.1675 eV
             Fermi-level           -0.3106512 Eh           -8.4532 eV

 transition dipole moment (au) for excitation:          41          42
     X       Y       Z   
  -1.4534  -0.3493  -0.2994  total (au/Debye):    1.524   3.875
 dE (eV)             :    4.371
 oscillator strength :  0.35196E+00

 SCC (total)                   0 d,  0 h,  0 min,  0.059 sec
 SCC setup                      ...        0 min,  0.000 sec (  0.383%)
 Dispersion                     ...        0 min,  0.000 sec (  0.474%)
 classical contributions        ...        0 min,  0.000 sec (  0.152%)
 integral evaluation            ...        0 min,  0.004 sec (  7.524%)
 iterations                     ...        0 min,  0.036 sec ( 61.468%)
 molecular gradient             ...        0 min,  0.014 sec ( 22.960%)
 printout                       ...        0 min,  0.004 sec (  7.028%)

         :::::::::::::::::::::::::::::::::::::::::::::::::::::
         ::                     SUMMARY                     ::
         :::::::::::::::::::::::::::::::::::::::::::::::::::::
         :: total energy             -45.012615946097 Eh    ::
         :: gradient norm              0.154783320474 Eh/a0 ::
         :: HOMO-LUMO gap              0.167494327346 eV    ::
         ::.................................................::
         :: SCC energy               -45.677937127819 Eh    ::
         :: -> isotropic ES            0.052766593314 Eh    ::
         :: -> anisotropic ES          0.005104549424 Eh    ::
         :: -> anisotropic XC          0.017255083751 Eh    ::
         :: -> dispersion             -0.030128350629 Eh    ::
         :: repulsion energy           0.665321181723 Eh    ::
         :: add. restraining           0.000000000000 Eh    ::
         :: total charge               0.000000000668 e     ::
         :::::::::::::::::::::::::::::::::::::::::::::::::::::

           -------------------------------------------------
          |                Property Printout                |
           -------------------------------------------------

    * Orbital Energies and Occupations

         #    Occupation            Energy/Eh            Energy/eV
      -------------------------------------------------------------
         1        2.0000           -0.7286012             -19.8262
       ...           ...                  ...                  ...
        30        2.0000           -0.4621195             -12.5749
        31        2.0000           -0.4608026             -12.5391
        32        2.0000           -0.4565096             -12.4223
        33        2.0000           -0.4492354             -12.2243
        34        2.0000           -0.4444040             -12.0928
        35        2.0000           -0.4395364             -11.9604
        36        2.0000           -0.4381474             -11.9226
        37        2.0000           -0.4227703             -11.5042
        38        2.0000           -0.4188807             -11.3983
        39        2.0000           -0.4068649             -11.0714
        40        1.9995           -0.4033866             -10.9767
        41        1.0005           -0.3888867             -10.5821
        42        0.9623           -0.2282555              -6.2111 (HOMO)
        43        0.0377           -0.2221002              -6.0437 (LUMO)
        44                         -0.2072579              -5.6398
        45                         -0.0954258              -2.5967
        46                          0.0579975               1.5782
        47                          0.0778238               2.1177
        48                          0.0843961               2.2965
        49                          0.0900060               2.4492
        50                          0.0994004               2.7048
        51                          0.1144465               3.1142
        52                          0.1309517               3.5634
        53                          0.1379195               3.7530
       ...                                ...                  ...
        78                          0.6697897              18.2259
      -------------------------------------------------------------
                  HL-Gap            0.0061553 Eh            0.1675 eV
             Fermi-level           -0.3106512 Eh           -8.4532 eV

     #   Z          covCN         q      C6AA      α(0)
     1   6 C        3.755    -0.107    22.595     6.778
     2   6 C        3.849    -0.000    20.555     6.449
     3   6 C        3.809    -0.064    21.723     6.634
     4   6 C        2.967     0.014    27.702     8.633
     5   6 C        2.925    -0.041    29.021     8.834
     6   6 C        2.922    -0.036    28.889     8.814
     7   6 C        2.981     0.011    27.758     8.642
     8   6 C        3.858    -0.029    21.056     6.526
     9   6 C        2.700     0.331    21.376     7.567
    10   8 O        1.660    -0.397    20.791     6.155
    11   8 O        0.856    -0.420    22.080     6.300
    12   6 C        3.756    -0.104    22.533     6.768
    13   6 C        2.922    -0.043    29.079     8.843
    14   6 C        2.925    -0.035    28.862     8.810
    15   6 C        3.755    -0.107    22.591     6.777
    16   1 H        0.925     0.036     2.499     2.472
    17   1 H        0.925     0.038     2.480     2.463
    18   1 H        0.925     0.042     2.419     2.432
    19   1 H        0.924     0.031     2.572     2.508
    20   1 H        0.924     0.043     2.413     2.429
    21   1 H        0.924     0.045     2.389     2.417
    22   1 H        0.926     0.033     2.544     2.494
    23   1 H        0.926     0.048     2.342     2.393
    24   1 H        0.924     0.059     2.215     2.327
    25   1 H        0.804     0.323     0.657     1.273
    26   1 H        0.925     0.046     2.374     2.409
    27   1 H        0.925     0.046     2.374     2.410
    28   1 H        0.925     0.061     2.192     2.315
    29   1 H        0.926     0.029     2.599     2.521
    30   1 H        0.926     0.033     2.538     2.491
    31   1 H        0.925     0.041     2.431     2.438
    32   1 H        0.925     0.036     2.509     2.477
    33   1 H        0.925     0.038     2.476     2.461

 Mol. C6AA /au·bohr⁶  :      10217.093804
 Mol. C8AA /au·bohr⁸  :     233893.272378
 Mol. α(0) /au        :        155.264578


Wiberg/Mayer (AO) data.
largest (>0.10) Wiberg bond orders for each atom

 ---------------------------------------------------------------------------
     #   Z sym  total        # sym  WBO       # sym  WBO       # sym  WBO
 ---------------------------------------------------------------------------
     1   6 C    3.995 --     2 C    1.010    16 H    0.986    18 H    0.984
                            17 H    0.984
     2   6 C    3.972 --    15 C    1.010     1 C    1.010    19 H    0.968
                             3 C    0.937
     3   6 C    3.987 --     4 C    1.048    20 H    0.965    21 H    0.963
                             2 C    0.937
     4   6 C    3.711 --    14 C    1.203     5 C    1.159     3 C    1.048
     5   6 C    3.952 --     6 C    1.610     4 C    1.159    22 H    0.968
     6   6 C    3.952 --     5 C    1.610     7 C    1.183    23 H    0.965
     7   6 C    3.797 --     6 C    1.183    13 C    1.149     8 C    1.028
                             9 C    0.120    11 O    0.110
     8   6 C    3.980 --     7 C    1.028    12 C    0.972    24 H    0.961
                             9 C    0.884
     9   6 C    3.878 --    11 O    1.629    10 O    1.076     8 C    0.884
                             7 C    0.120
    10   8 O    2.131 --     9 C    1.076    25 H    0.871    11 O    0.124
    11   8 O    1.984 --     9 C    1.629    10 O    0.124     7 C    0.110
    12   6 C    3.987 --    27 H    0.985    28 H    0.983    26 H    0.982
                             8 C    0.972
    13   6 C    3.940 --    14 C    1.596     7 C    1.149    29 H    0.968
    14   6 C    3.937 --    13 C    1.596     4 C    1.203    30 H    0.967
    15   6 C    3.995 --     2 C    1.010    32 H    0.986    31 H    0.984
                            33 H    0.983
    16   1 H    0.998 --     1 C    0.986
    17   1 H    0.996 --     1 C    0.984
    18   1 H    0.998 --     1 C    0.984
    19   1 H    0.998 --     2 C    0.968
    20   1 H    0.994 --     3 C    0.965
    21   1 H    0.993 --     3 C    0.963
    22   1 H    0.999 --     5 C    0.968
    23   1 H    0.997 --     6 C    0.965
    24   1 H    0.996 --     8 C    0.961
    25   1 H    0.894 --    10 O    0.871
    26   1 H    0.997 --    12 C    0.982
    27   1 H    0.997 --    12 C    0.985
    28   1 H    0.996 --    12 C    0.983
    29   1 H    0.999 --    13 C    0.968
    30   1 H    0.998 --    14 C    0.967
    31   1 H    0.998 --    15 C    0.984
    32   1 H    0.998 --    15 C    0.986
    33   1 H    0.996 --    15 C    0.983
 ---------------------------------------------------------------------------

Topologies differ in total number of bonds
Writing topology from bond orders to xtbtopo.mol

molecular dipole:
                 x           y           z       tot (Debye)
 q only:       -1.104      -0.473       0.341
   full:       -1.022      -0.607       0.231       3.077
molecular quadrupole (traceless):
                xx          xy          yy          xz          yz          zz
 q only:       -2.033      -6.350      -0.782       4.676       3.658       2.815
  q+dip:        1.205      -6.674      -3.132       5.282       2.175       1.926
   full:        0.214      -7.408      -3.225       4.131       3.921       3.011


           -------------------------------------------------
          | TOTAL ENERGY              -45.012615946097 Eh   |
          | GRADIENT NORM               0.154783320474 Eh/α |
          | HOMO-LUMO GAP               0.167494327346 eV   |
           -------------------------------------------------

------------------------------------------------------------------------
 * finished run on 2025/05/15 at 16:32:49.906     
------------------------------------------------------------------------
 total:
 * wall-time:     0 d,  0 h,  0 min,  0.069 sec
 *  cpu-time:     0 d,  0 h,  0 min,  0.052 sec
 * ratio c/w:     0.757 speedup
 SCF:
 * wall-time:     0 d,  0 h,  0 min,  0.059 sec
 *  cpu-time:     0 d,  0 h,  0 min,  0.044 sec
 * ratio c/w:     0.743 speedup


