33
 energy: -45.171893024891 gnorm: 0.000644211690 xtb: 6.7.1 (edcfbbe)
C           -3.15025800048497       -0.61663601321373        0.85496655539211
C           -3.16532563983186        0.29755500376142       -0.36642703577851
C           -2.08416922692914        1.38552512652912       -0.24790537992497
C           -0.70111797432624        0.80330950037477       -0.22720420628033
C            0.02555215125913        0.70998141284736        0.95285257179215
C            1.29071552800671        0.15241936004806        0.96666918647541
C            1.86018284948246       -0.33180022163164       -0.20388192161851
C            3.24397773314995       -0.94737012801234       -0.19018670311905
C            4.18591306392879        0.12524475182504        0.31417644786342
O            4.67086443533670        0.86433534614871       -0.69250444147131
O            4.45892416206781        0.34170708744969        1.46374168859228
C            3.30253006898581       -2.18923122723993        0.69874417272438
C            1.14076499034762       -0.23536267638271       -1.38694204088446
C           -0.12382258334299        0.32303295081503       -1.39621963915011
C           -4.53943907106896        0.94082830631369       -0.53412806462890
H           -2.17440598003358       -1.08165062244476        0.97357239613278
H           -3.37447175253426       -0.04959599158390        1.75626842890310
H           -3.89562396111899       -1.40194363703608        0.75079575043579
H           -2.94898683753281       -0.30631388469488       -1.25479432439941
H           -2.25873584090557        1.96056222328506        0.66369857516513
H           -2.17716513228386        2.06338589465294       -1.10019986871885
H           -0.40115273027061        1.08305514331748        1.87286009213610
H            1.84660740875145        0.10481132177345        1.89099124785415
H            3.53219940245104       -1.19515152811214       -1.21523199206184
H            5.23088579405196        1.57927618986270       -0.35099967415343
H            2.52028993849952       -2.88795000482806        0.41295198618137
H            3.16603143698342       -1.91128920121575        1.73999664711984
H            4.26803484642197       -2.67972113726433        0.59902790131848
H            1.57287415542527       -0.59836322767181       -2.30860914656489
H           -0.66894473786434        0.39290103341177       -2.32685156288480
H           -4.56692168246760        1.56926272399916       -1.42180180098874
H           -4.77728772926990        1.55787821289995        0.33008049227096
H           -5.30831908488450        0.17760791201657       -0.63130633772836
