----- Optimization -----
      -----------------------------------------------------------      
     |                   =====================                   |     
     |                           x T B                           |     
     |                   =====================                   |     
     |                         S. Grimme                         |     
     |          Mulliken Center for Theoretical Chemistry        |     
     |                    University of Bonn                     |     
      -----------------------------------------------------------      

   * xtb version 6.7.1 (edcfbbe) compiled by 'conda@3ef47c1a292c' on 2024-11-25

   xtb is free software: you can redistribute it and/or modify it under
   the terms of the GNU Lesser General Public License as published by
   the Free Software Foundation, either version 3 of the License, or
   (at your option) any later version.
   
   xtb is distributed in the hope that it will be useful,
   but WITHOUT ANY WARRANTY; without even the implied warranty of
   MERCHANTABILITY or FITNESS FOR A PARTICULAR PURPOSE.  See the
   GNU Lesser General Public License for more details.
   
   Cite this work as:
   * C. Bannwarth, E. Caldeweyher, S. Ehlert, A. Hansen, P. Pracht,
     J. Seibert, S. Spicher, S. Grimme, WIREs Comput. Mol. Sci., 2020, 11,
     e01493. DOI: 10.1002/wcms.1493
   
   for GFN2-xTB:
   * C. Bannwarth, S. Ehlert and S. Grimme., J. Chem. Theory Comput., 2019,
     15, 1652-1671. DOI: 10.1021/acs.jctc.8b01176
   for GFN1-xTB:
   * S. Grimme, C. Bannwarth, P. Shushkov, J. Chem. Theory Comput., 2017,
     13, 1989-2009. DOI: 10.1021/acs.jctc.7b00118
   for GFN0-xTB:
   * P. Pracht, E. Caldeweyher, S. Ehlert, S. Grimme, ChemRxiv, 2019, preprint.
     DOI: 10.26434/chemrxiv.8326202.v1
   for GFN-FF:
   * S. Spicher and S. Grimme, Angew. Chem. Int. Ed., 2020, 59, 15665-15673.
     DOI: 10.1002/anie.202004239
   
   for ALPB and GBSA implicit solvation:
   * S. Ehlert, M. Stahn, S. Spicher, S. Grimme, J. Chem. Theory Comput.,
     2021, 17, 4250-4261. DOI: 10.1021/acs.jctc.1c00471
   
   for ddCOSMO and CPCM-X implicit solvation:
   * M. Stahn, S. Ehlert, S. Grimme, J. Phys. Chem. A,
     2023, XX, XXXX-XXXX. DOI: 10.1021/acs.jpca.3c04382
   
   for DFT-D4:
   * E. Caldeweyher, C. Bannwarth and S. Grimme, J. Chem. Phys., 2017,
     147, 034112. DOI: 10.1063/1.4993215
   * E. Caldeweyher, S. Ehlert, A. Hansen, H. Neugebauer, S. Spicher,
     C. Bannwarth and S. Grimme, J. Chem. Phys., 2019, 150, 154122.
     DOI: 10.1063/1.5090222
   * E. Caldeweyher, J.-M. Mewes, S. Ehlert and S. Grimme, Phys. Chem. Chem. Phys.
     2020, 22, 8499-8512. DOI: 10.1039/D0CP00502A
   
   for sTDA-xTB:
   * S. Grimme and C. Bannwarth, J. Chem. Phys., 2016, 145, 054103.
     DOI: 10.1063/1.4959605
   
   in the mass-spec context:
   * V. Asgeirsson, C. Bauer and S. Grimme, Chem. Sci., 2017, 8, 4879.
     DOI: 10.1039/c7sc00601b
   * J. Koopman and S. Grimme, ACS Omega 2019, 4, 12, 15120-15133.
     DOI: 10.1021/acsomega.9b02011
   
   for metadynamics refer to:
   * S. Grimme, J. Chem. Theory Comput., 2019, 155, 2847-2862
     DOI: 10.1021/acs.jctc.9b00143
   
   for SPH calculations refer to:
   * S. Spicher and S. Grimme, J. Chem. Theory Comput., 2021, 17, 1701-1714
     DOI: 10.1021/acs.jctc.0c01306
   
   for ONIOM refer to:
   * C. Plett, A. Katbashev, S. Ehlert, S. Grimme, M. Bursch,
     Phys. Chem. Chem. Phys., 2023, 25, 17860-17868. DOI: 10.1039/D3CP02178E
   
   for DIPRO refer to:
   * J. Kohn, N. Gildemeister, S. Grimme, D. Fazzi, A. Hansen,
     J. Chem. Phys., 2023, just accepted.
   
   for PTB refer to:
   * S. Grimme, M. Mueller, A. Hansen, J. Chem. Phys., 2023, 158, 124111.
     DOI: 10.1063/5.0137838
   
   with help from (in alphabetical order)
   P. Atkinson, C. Bannwarth, F. Bohle, G. Brandenburg, E. Caldeweyher
   M. Checinski, S. Dohm, S. Ehlert, S. Ehrlich, I. Gerasimov, C. Hölzer
   A. Katbashev, J. Kohn, J. Koopman, C. Lavigne, S. Lehtola, F. März, M. Müller,
   F. Musil, H. Neugebauer, J. Pisarek, C. Plett, P. Pracht, F. Pultar,
   J. Seibert, P. Shushkov, S. Spicher, M. Stahn, M. Steiner, T. Strunk,
   J. Stückrath, T. Rose, and J. Unsleber
   
 * started run on 2025/05/15 at 16:30:37.300     
   ID    Z sym.   atoms
    1    6 C      1-9, 12-15
    2    8 O      10, 11
    3    1 H      16-33

           -------------------------------------------------
          |                Calculation Setup                |
           -------------------------------------------------

          program call               : xtb /rds/general/user/hgt20/home/callum/QDESCP/Ibuprofen_rdkit_conf_3/Ibuprofen_rdkit_conf_3.xyz --opt normal --acc 1 --gfn 2 --chrg 0 --uhf 0 -P 1
          hostname                   : login-c
          coordinate file            : /rds/general/user/hgt20/home/callum/QDESCP/Ibuprofen_rdkit_conf_3/Ibuprofen_rdkit_conf_3.xyz
          omp threads                :                     1


           -------------------------------------------------
          |                 G F N 2 - x T B                 |
           -------------------------------------------------

        Reference                      10.1021/acs.jctc.8b01176
      * Hamiltonian:
        H0-scaling (s, p, d)           1.850000    2.230000    2.230000
        zeta-weighting                 0.500000
      * Dispersion:
        s8                             2.700000
        a1                             0.520000
        a2                             5.000000
        s9                             5.000000
      * Repulsion:
        kExp                           1.500000    1.000000
        rExp                           1.000000
      * Coulomb:
        alpha                          2.000000
        third order                    shell-resolved
        anisotropic                    true
        a3                             3.000000
        a5                             4.000000
        cn-shift                       1.200000
        cn-exp                         4.000000
        max-rad                        5.000000


          ...................................................
          :                      SETUP                      :
          :.................................................:
          :  # basis functions                  78          :
          :  # atomic orbitals                  78          :
          :  # shells                           48          :
          :  # electrons                        82          :
          :  max. iterations                   250          :
          :  Hamiltonian                  GFN2-xTB          :
          :  restarted?                      false          :
          :  GBSA solvation                  false          :
          :  PC potential                    false          :
          :  electronic temp.          300.0000000     K    :
          :  accuracy                    1.0000000          :
          :  -> integral cutoff          0.2500000E+02      :
          :  -> integral neglect         0.1000000E-07      :
          :  -> SCF convergence          0.1000000E-05 Eh   :
          :  -> wf. convergence          0.1000000E-03 e    :
          :  Broyden damping             0.4000000          :
          :  net charge                          0          :
          :  unpaired electrons                  0          :
          ...................................................

 iter      E             dE          RMSdq      gap      omega  full diag
   1    -45.7118431 -0.457118E+02  0.374E+00    4.37       0.0  T
   2    -45.7810630 -0.692199E-01  0.208E+00    4.09       1.0  T
   3    -45.7825920 -0.152905E-02  0.105E+00    4.23       1.0  T
   4    -45.7887959 -0.620381E-02  0.184E-01    3.85       1.0  T
   5    -45.7892175 -0.421674E-03  0.704E-02    3.87       1.0  T
   6    -45.7892394 -0.218293E-04  0.407E-02    3.89       1.0  T
   7    -45.7892641 -0.247667E-04  0.125E-02    3.90       1.4  T
   8    -45.7892663 -0.221225E-05  0.442E-03    3.90       3.9  T
   9    -45.7892666 -0.224085E-06  0.203E-03    3.90       8.6  T
  10    -45.7892666 -0.342271E-07  0.792E-04    3.90      22.0  T
  11    -45.7892666 -0.600817E-08  0.361E-04    3.90      48.3  T

   *** convergence criteria satisfied after 11 iterations ***

         #    Occupation            Energy/Eh            Energy/eV
      -------------------------------------------------------------
         1        2.0000           -0.7440365             -20.2463
       ...           ...                  ...                  ...
        35        2.0000           -0.4360940             -11.8667
        36        2.0000           -0.4287548             -11.6670
        37        2.0000           -0.4237823             -11.5317
        38        2.0000           -0.4205429             -11.4436
        39        2.0000           -0.4138962             -11.2627
        40        2.0000           -0.4012959             -10.9198
        41        2.0000           -0.3885574             -10.5732 (HOMO)
        42                         -0.2452861              -6.6746 (LUMO)
        43                         -0.2253180              -6.1312
        44                         -0.2218395              -6.0366
        45                         -0.1031004              -2.8055
        46                          0.0433108               1.1785
       ...                                ...                  ...
        78                          0.6188447              16.8396
      -------------------------------------------------------------
                  HL-Gap            0.1432713 Eh            3.8986 eV
             Fermi-level           -0.3169218 Eh           -8.6239 eV

 SCC (total)                   0 d,  0 h,  0 min,  0.032 sec
 SCC setup                      ...        0 min,  0.000 sec (  0.783%)
 Dispersion                     ...        0 min,  0.000 sec (  0.922%)
 classical contributions        ...        0 min,  0.000 sec (  0.289%)
 integral evaluation            ...        0 min,  0.004 sec ( 13.789%)
 iterations                     ...        0 min,  0.013 sec ( 41.778%)
 molecular gradient             ...        0 min,  0.013 sec ( 42.077%)
 printout                       ...        0 min,  0.000 sec (  0.343%)

         :::::::::::::::::::::::::::::::::::::::::::::::::::::
         ::                     SUMMARY                     ::
         :::::::::::::::::::::::::::::::::::::::::::::::::::::
         :: total energy             -45.166069251029 Eh    ::
         :: gradient norm              0.053413246182 Eh/a0 ::
         :: HOMO-LUMO gap              3.898611576241 eV    ::
         ::.................................................::
         :: SCC energy               -45.789143495256 Eh    ::
         :: -> isotropic ES            0.052352443040 Eh    ::
         :: -> anisotropic ES          0.007576990515 Eh    ::
         :: -> anisotropic XC          0.019805686063 Eh    ::
         :: -> dispersion             -0.028856957734 Eh    ::
         :: repulsion energy           0.623074244227 Eh    ::
         :: add. restraining           0.000000000000 Eh    ::
         :: total charge              -0.000000000000 e     ::
         :::::::::::::::::::::::::::::::::::::::::::::::::::::

      ----------------------------------------------------------- 
     |                   =====================                   |
     |                        A N C O P T                        |
     |                   =====================                   |
     |               Approximate Normal Coordinate               |
     |                Rational Function Optimizer                |
      ----------------------------------------------------------- 
      ----------------------------------------------------------- 
     |                   =====================                   |
     |                        A N C O P T                        |
     |                   =====================                   |
     |               Approximate Normal Coordinate               |
     |                Rational Function Optimizer                |
      ----------------------------------------------------------- 

          ...................................................
          :                      SETUP                      :
          :.................................................:
          :   optimization level            normal          :
          :   max. optcycles                   200          :
          :   ANC micro-cycles                  20          :
          :   degrees of freedom                93          :
          :.................................................:
          :   RF solver                   davidson          :
          :   write xtbopt.log                true          :
          :   linear?                        false          :
          :   energy convergence         0.5000000E-05 Eh   :
          :   grad. convergence          0.1000000E-02 Eh/α :
          :   maxmium RF displ.          1.0000000          :
          :   Hlow (freq-cutoff)         0.1000000E-01      :
          :   Hmax (freq-cutoff)         5.0000000          :
          :   S6 in model hess.         20.0000000          :
          ...................................................

generating ANC from exact Hessian ...
Using Lindh-Hessian (1995)
 Shifting diagonal of input Hessian by    9.6358975635057655E-003
 Lowest  eigenvalues of input Hessian
    0.000000    0.000000    0.000000    0.000000    0.000000    0.000000
    0.010000    0.010381    0.010788    0.011529    0.012036    0.014130
    0.015540    0.016505    0.017938    0.018235    0.018696    0.019378
 Highest eigenvalues
    1.556829    1.688223    1.822872    1.895315    1.934871    2.249717


........................................................................
.............................. CYCLE    1 ..............................
........................................................................

 iter      E             dE          RMSdq      gap      omega  full diag
   1    -45.7892666 -0.457893E+02  0.164E-04    3.90       0.0  T
   2    -45.7892666 -0.225093E-09  0.109E-04    3.90     160.2  T
   3    -45.7892666 -0.172712E-09  0.665E-05    3.90     261.7  T
     SCC iter.                  ...        0 min,  0.004 sec
     gradient                   ...        0 min,  0.013 sec
 * total energy  :   -45.1660693 Eh     change       -0.8812862E-09 Eh
   gradient norm :     0.0534187 Eh/α   predicted     0.0000000E+00 (-100.00%)
   displ. norm   :     0.2353502 α      lambda       -0.6253051E-02
   maximum displ.:     0.0578301 α      in ANC's #53, #22, #17, ...

........................................................................
.............................. CYCLE    2 ..............................
........................................................................

 iter      E             dE          RMSdq      gap      omega  full diag
   1    -45.8235276 -0.458235E+02  0.164E-01    4.10       0.0  T
   2    -45.8235850 -0.574745E-04  0.969E-02    4.06       1.0  T
   3    -45.8235796  0.541374E-05  0.301E-02    4.07       1.0  T
   4    -45.8235895 -0.990087E-05  0.493E-03    4.06       3.5  T
   5    -45.8235901 -0.528311E-06  0.230E-03    4.07       7.6  T
   6    -45.8235901 -0.599489E-07  0.125E-03    4.07      13.9  T
   7    -45.8235901 -0.979506E-08  0.322E-04    4.07      54.0  T
   8    -45.8235901 -0.153939E-08  0.149E-04    4.07     117.2  T
     SCC iter.                  ...        0 min,  0.009 sec
     gradient                   ...        0 min,  0.014 sec
 * total energy  :   -45.1700803 Eh     change       -0.4011011E-02 Eh
   gradient norm :     0.0160516 Eh/α   predicted    -0.3300391E-02 ( -17.72%)
   displ. norm   :     0.2268605 α      lambda       -0.1579551E-02
   maximum displ.:     0.1158740 α      in ANC's #4, #6, #3, ...

........................................................................
.............................. CYCLE    3 ..............................
........................................................................

 iter      E             dE          RMSdq      gap      omega  full diag
   1    -45.8382715 -0.458383E+02  0.959E-02    4.13       0.0  T
   2    -45.8382853 -0.138029E-04  0.559E-02    4.11       1.0  T
   3    -45.8382822  0.306485E-05  0.165E-02    4.12       1.1  T
   4    -45.8382867 -0.442470E-05  0.354E-03    4.11       4.9  T
   5    -45.8382870 -0.337379E-06  0.155E-03    4.11      11.2  T
   6    -45.8382870 -0.353369E-07  0.806E-04    4.11      21.6  T
   7    -45.8382870 -0.314672E-08  0.243E-04    4.11      71.7  T
     SCC iter.                  ...        0 min,  0.051 sec
     gradient                   ...        0 min,  0.014 sec
 * total energy  :   -45.1710496 Eh     change       -0.9693500E-03 Eh
   gradient norm :     0.0076766 Eh/α   predicted    -0.8304229E-03 ( -14.33%)
   displ. norm   :     0.2035771 α      lambda       -0.5651415E-03
   maximum displ.:     0.1179941 α      in ANC's #4, #6, #3, ...

........................................................................
.............................. CYCLE    4 ..............................
........................................................................

 iter      E             dE          RMSdq      gap      omega  full diag
   1    -45.8400632 -0.458401E+02  0.729E-02    4.11       0.0  T
   2    -45.8400649 -0.169523E-05  0.428E-02    4.11       1.0  T
   3    -45.8400641  0.804232E-06  0.708E-03    4.11       2.5  T
   4    -45.8400654 -0.138195E-05  0.194E-03    4.11       9.0  T
   5    -45.8400654 -0.124581E-07  0.110E-03    4.11      15.9  T
   6    -45.8400655 -0.128566E-07  0.397E-04    4.11      43.9  T
   7    -45.8400655 -0.129157E-08  0.132E-04    4.11     131.8  T
     SCC iter.                  ...        0 min,  0.008 sec
     gradient                   ...        0 min,  0.013 sec
 * total energy  :   -45.1714290 Eh     change       -0.3793645E-03 Eh
   gradient norm :     0.0051109 Eh/α   predicted    -0.2943060E-03 ( -22.42%)
   displ. norm   :     0.2201383 α      lambda       -0.3243993E-03
   maximum displ.:     0.1440590 α      in ANC's #4, #6, #3, ...

........................................................................
.............................. CYCLE    5 ..............................
........................................................................

 iter      E             dE          RMSdq      gap      omega  full diag
   1    -45.8376122 -0.458376E+02  0.804E-02    4.08       0.0  T
   2    -45.8376142 -0.204779E-05  0.475E-02    4.09       1.0  T
   3    -45.8376133  0.905396E-06  0.686E-03    4.09       2.5  T
   4    -45.8376147 -0.139553E-05  0.215E-03    4.09       8.1  T
   5    -45.8376148 -0.730358E-07  0.115E-03    4.09      15.1  T
   6    -45.8376148 -0.662315E-08  0.486E-04    4.09      35.8  T
   7    -45.8376148 -0.295840E-08  0.140E-04    4.09     124.6  T
     SCC iter.                  ...        0 min,  0.008 sec
     gradient                   ...        0 min,  0.013 sec
 * total energy  :   -45.1716338 Eh     change       -0.2048234E-03 Eh
   gradient norm :     0.0050669 Eh/α   predicted    -0.1700633E-03 ( -16.97%)
   displ. norm   :     0.1292911 α      lambda       -0.1228032E-03
   maximum displ.:     0.0880735 α      in ANC's #4, #3, #13, ...

........................................................................
.............................. CYCLE    6 ..............................
........................................................................

 iter      E             dE          RMSdq      gap      omega  full diag
   1    -45.8365179 -0.458365E+02  0.432E-02    4.09       0.0  T
   2    -45.8365183 -0.403461E-06  0.255E-02    4.09       1.0  T
   3    -45.8365181  0.168954E-06  0.342E-03    4.09       5.1  T
   4    -45.8365184 -0.314791E-06  0.915E-04    4.09      19.0  T
   5    -45.8365184  0.143416E-09  0.497E-04    4.09      35.0  T
     SCC iter.                  ...        0 min,  0.006 sec
     gradient                   ...        0 min,  0.014 sec
 * total energy  :   -45.1717231 Eh     change       -0.8930488E-04 Eh
   gradient norm :     0.0032051 Eh/α   predicted    -0.6242848E-04 ( -30.10%)
   displ. norm   :     0.1287439 α      lambda       -0.8632847E-04
   maximum displ.:     0.0833147 α      in ANC's #4, #3, #13, ...

........................................................................
.............................. CYCLE    7 ..............................
........................................................................

 iter      E             dE          RMSdq      gap      omega  full diag
   1    -45.8364406 -0.458364E+02  0.387E-02    4.09       0.0  T
   2    -45.8364408 -0.221064E-06  0.229E-02    4.09       1.0  T
   3    -45.8364408 -0.868575E-08  0.183E-03    4.09       9.5  T
   4    -45.8364409 -0.723300E-07  0.784E-04    4.09      22.2  T
   5    -45.8364409 -0.251919E-08  0.406E-04    4.09      42.9  T
     SCC iter.                  ...        0 min,  0.006 sec
     gradient                   ...        0 min,  0.014 sec
 * total energy  :   -45.1717842 Eh     change       -0.6110857E-04 Eh
   gradient norm :     0.0023418 Eh/α   predicted    -0.4388111E-04 ( -28.19%)
   displ. norm   :     0.1061129 α      lambda       -0.4398825E-04
   maximum displ.:     0.0645231 α      in ANC's #4, #3, #1, ...

........................................................................
.............................. CYCLE    8 ..............................
........................................................................

 iter      E             dE          RMSdq      gap      omega  full diag
   1    -45.8371406 -0.458371E+02  0.282E-02    4.09       0.0  T
   2    -45.8371407 -0.100056E-06  0.167E-02    4.09       1.0  T
   3    -45.8371407 -0.167725E-07  0.107E-03    4.09      16.3  T
   4    -45.8371407 -0.181059E-07  0.567E-04    4.09      30.7  T
   5    -45.8371407 -0.301478E-08  0.274E-04    4.09      63.6  T
     SCC iter.                  ...        0 min,  0.006 sec
     gradient                   ...        0 min,  0.014 sec
 * total energy  :   -45.1718154 Eh     change       -0.3117681E-04 Eh
   gradient norm :     0.0018611 Eh/α   predicted    -0.2224368E-04 ( -28.65%)
   displ. norm   :     0.1321964 α      lambda       -0.2479655E-04
   maximum displ.:     0.0708471 α      in ANC's #4, #3, #1, ...

........................................................................
.............................. CYCLE    9 ..............................
........................................................................

 iter      E             dE          RMSdq      gap      omega  full diag
   1    -45.8380788 -0.458381E+02  0.298E-02    4.09       0.0  T
   2    -45.8380790 -0.161508E-06  0.176E-02    4.09       1.0  T
   3    -45.8380790  0.360633E-07  0.171E-03    4.09      10.2  T
   4    -45.8380790 -0.755409E-07  0.632E-04    4.09      27.6  T
   5    -45.8380790 -0.490531E-08  0.319E-04    4.09      54.6  T
     SCC iter.                  ...        0 min,  0.027 sec
     gradient                   ...        0 min,  0.014 sec
 * total energy  :   -45.1718368 Eh     change       -0.2138665E-04 Eh
   gradient norm :     0.0014193 Eh/α   predicted    -0.1249897E-04 ( -41.56%)
   displ. norm   :     0.0506578 α      lambda       -0.9948599E-05
   maximum displ.:     0.0305977 α      in ANC's #1, #5, #6, ...

........................................................................
.............................. CYCLE   10 ..............................
........................................................................

 iter      E             dE          RMSdq      gap      omega  full diag
   1    -45.8382788 -0.458383E+02  0.111E-02    4.09       0.0  T
   2    -45.8382788 -0.531955E-07  0.649E-03    4.09       2.7  T
   3    -45.8382788  0.226520E-07  0.100E-03    4.09      17.4  T
   4    -45.8382788 -0.289458E-07  0.374E-04    4.09      46.5  T
     SCC iter.                  ...        0 min,  0.004 sec
     gradient                   ...        0 min,  0.013 sec
 * total energy  :   -45.1718487 Eh     change       -0.1193900E-04 Eh
   gradient norm :     0.0013996 Eh/α   predicted    -0.4981867E-05 ( -58.27%)
   displ. norm   :     0.0979045 α      lambda       -0.1498916E-04
   maximum displ.:     0.0596104 α      in ANC's #1, #5, #3, ...

........................................................................
.............................. CYCLE   11 ..............................
........................................................................

 iter      E             dE          RMSdq      gap      omega  full diag
   1    -45.8376882 -0.458377E+02  0.215E-02    4.08       0.0  T
   2    -45.8376883 -0.856921E-07  0.127E-02    4.09       1.4  T
   3    -45.8376882  0.367710E-07  0.136E-03    4.08      12.8  T
   4    -45.8376883 -0.607489E-07  0.494E-04    4.09      35.3  T
   5    -45.8376883 -0.412184E-08  0.255E-04    4.09      68.2  T
     SCC iter.                  ...        0 min,  0.006 sec
     gradient                   ...        0 min,  0.053 sec
 * total energy  :   -45.1718639 Eh     change       -0.1514129E-04 Eh
   gradient norm :     0.0012812 Eh/α   predicted    -0.7527681E-05 ( -50.28%)
   displ. norm   :     0.0909052 α      lambda       -0.9192175E-05
   maximum displ.:     0.0572020 α      in ANC's #1, #5, #3, ...

........................................................................
.............................. CYCLE   12 ..............................
........................................................................

 iter      E             dE          RMSdq      gap      omega  full diag
   1    -45.8377496 -0.458377E+02  0.213E-02    4.09       0.0  T
   2    -45.8377497 -0.980049E-07  0.126E-02    4.09       1.4  T
   3    -45.8377496  0.488722E-07  0.163E-03    4.09      10.7  T
   4    -45.8377497 -0.792599E-07  0.476E-04    4.09      36.5  T
   5    -45.8377497 -0.182845E-08  0.268E-04    4.09      64.9  T
     SCC iter.                  ...        0 min,  0.006 sec
     gradient                   ...        0 min,  0.013 sec
 * total energy  :   -45.1718731 Eh     change       -0.9254530E-05 Eh
   gradient norm :     0.0010555 Eh/α   predicted    -0.4616706E-05 ( -50.11%)
   displ. norm   :     0.0728989 α      lambda       -0.6754879E-05
   maximum displ.:     0.0479989 α      in ANC's #1, #5, #3, ...

........................................................................
.............................. CYCLE   13 ..............................
........................................................................

 iter      E             dE          RMSdq      gap      omega  full diag
   1    -45.8376767 -0.458377E+02  0.127E-02    4.09       0.0  T
   2    -45.8376768 -0.887162E-07  0.749E-03    4.09       2.3  T
   3    -45.8376768  0.189453E-07  0.112E-03    4.09      15.6  T
   4    -45.8376768 -0.248567E-07  0.367E-04    4.09      47.4  T
   5    -45.8376768 -0.319140E-08  0.123E-04    4.09     141.7  T
     SCC iter.                  ...        0 min,  0.006 sec
     gradient                   ...        0 min,  0.014 sec
 * total energy  :   -45.1718811 Eh     change       -0.8029802E-05 Eh
   gradient norm :     0.0007621 Eh/α   predicted    -0.3390383E-05 ( -57.78%)
   displ. norm   :     0.0831679 α      lambda       -0.6902591E-05
   maximum displ.:     0.0554686 α      in ANC's #1, #5, #3, ...

........................................................................
.............................. CYCLE   14 ..............................
........................................................................

 iter      E             dE          RMSdq      gap      omega  full diag
   1    -45.8377174 -0.458377E+02  0.138E-02    4.09       0.0  T
   2    -45.8377174 -0.206714E-07  0.814E-03    4.09       2.1  T
   3    -45.8377174  0.214930E-07  0.105E-03    4.09      16.5  T
   4    -45.8377174 -0.299310E-07  0.214E-04    4.09      81.2  T
   5    -45.8377174 -0.208324E-09  0.120E-04    4.09     145.0  T
     SCC iter.                  ...        0 min,  0.006 sec
     gradient                   ...        0 min,  0.053 sec
 * total energy  :   -45.1718888 Eh     change       -0.7690853E-05 Eh
   gradient norm :     0.0006252 Eh/α   predicted    -0.3464262E-05 ( -54.96%)
   displ. norm   :     0.0652983 α      lambda       -0.3808441E-05
   maximum displ.:     0.0444428 α      in ANC's #1, #5, #2, ...

........................................................................
.............................. CYCLE   15 ..............................
........................................................................

 iter      E             dE          RMSdq      gap      omega  full diag
   1    -45.8378033 -0.458378E+02  0.101E-02    4.09       0.0  T
   2    -45.8378033 -0.131707E-07  0.597E-03    4.09       2.9  T
   3    -45.8378033  0.154124E-07  0.821E-04    4.09      21.2  T
   4    -45.8378033 -0.202977E-07  0.175E-04    4.09      99.2  T
     SCC iter.                  ...        0 min,  0.005 sec
     gradient                   ...        0 min,  0.013 sec
 * total energy  :   -45.1718930 Eh     change       -0.4191672E-05 Eh
   gradient norm :     0.0006444 Eh/α   predicted    -0.1910315E-05 ( -54.43%)
   displ. norm   :     0.0461801 α      lambda       -0.2263366E-05
   maximum displ.:     0.0324481 α      in ANC's #1, #2, #3, ...

   *** GEOMETRY OPTIMIZATION CONVERGED AFTER 15 ITERATIONS ***

------------------------------------------------------------------------
 total energy gain   :        -0.0058238 Eh       -3.6545 kcal/mol
 total RMSD          :         0.2344786 a0        0.1241 Å
 total power (kW/mol):        -1.0193544 (step)  -26.5524 (real)
------------------------------------------------------------------------

 ANCopt (total)                0 d,  0 h,  0 min,  0.576 sec
 optimizer setup                ...        0 min,  0.000 sec (  0.015%)
 model hessian                  ...        0 min,  0.011 sec (  1.882%)
 ANC generation                 ...        0 min,  0.001 sec (  0.168%)
 coordinate transformation      ...        0 min,  0.000 sec (  0.013%)
 single point calculation       ...        0 min,  0.560 sec ( 97.279%)
 optimization log               ...        0 min,  0.002 sec (  0.401%)
 hessian update                 ...        0 min,  0.000 sec (  0.024%)
 rational function              ...        0 min,  0.001 sec (  0.134%)

================
 final structure:
================
33
 xtb: 6.7.1 (edcfbbe)
C           -3.15025800048497       -0.61663601321373        0.85496655539211
C           -3.16532563983186        0.29755500376142       -0.36642703577851
C           -2.08416922692914        1.38552512652912       -0.24790537992497
C           -0.70111797432624        0.80330950037477       -0.22720420628033
C            0.02555215125913        0.70998141284736        0.95285257179215
C            1.29071552800671        0.15241936004806        0.96666918647541
C            1.86018284948246       -0.33180022163164       -0.20388192161851
C            3.24397773314995       -0.94737012801234       -0.19018670311905
C            4.18591306392879        0.12524475182504        0.31417644786342
O            4.67086443533670        0.86433534614871       -0.69250444147131
O            4.45892416206781        0.34170708744969        1.46374168859228
C            3.30253006898581       -2.18923122723993        0.69874417272438
C            1.14076499034762       -0.23536267638271       -1.38694204088446
C           -0.12382258334299        0.32303295081503       -1.39621963915011
C           -4.53943907106896        0.94082830631369       -0.53412806462890
H           -2.17440598003358       -1.08165062244476        0.97357239613278
H           -3.37447175253426       -0.04959599158390        1.75626842890310
H           -3.89562396111899       -1.40194363703608        0.75079575043579
H           -2.94898683753281       -0.30631388469488       -1.25479432439941
H           -2.25873584090557        1.96056222328506        0.66369857516513
H           -2.17716513228386        2.06338589465294       -1.10019986871885
H           -0.40115273027061        1.08305514331748        1.87286009213610
H            1.84660740875145        0.10481132177345        1.89099124785415
H            3.53219940245104       -1.19515152811214       -1.21523199206184
H            5.23088579405196        1.57927618986270       -0.35099967415343
H            2.52028993849952       -2.88795000482806        0.41295198618137
H            3.16603143698342       -1.91128920121575        1.73999664711984
H            4.26803484642197       -2.67972113726433        0.59902790131848
H            1.57287415542527       -0.59836322767181       -2.30860914656489
H           -0.66894473786434        0.39290103341177       -2.32685156288480
H           -4.56692168246760        1.56926272399916       -1.42180180098874
H           -4.77728772926990        1.55787821289995        0.33008049227096
H           -5.30831908488450        0.17760791201657       -0.63130633772836

 Bond Distances (Angstroems)
 ---------------------------
C1-C2=1.5257         C1-H16=1.0875        C1-H17=1.0882        C1-H18=1.0877        C2-C1=1.5257         C2-C3=1.5384         
C2-C15=1.5265        C2-H19=1.0957        C3-C2=1.5384         C3-C4=1.5007         C3-H20=1.0919        C3-H21=1.0930        
C4-C3=1.5007         C4-C5=1.3890         C4-C14=1.3894        C5-C4=1.3890         C5-C6=1.3826         C5-H22=1.0806        
C6-C5=1.3826         C6-C7=1.3889         C6-H23=1.0797        C7-C6=1.3889         C7-C8=1.5146         C7-C13=1.3880        
C8-C7=1.5146         C8-C9=1.5140         C8-C12=1.5283        C8-H24=1.0932        C9-C8=1.5140         C9-O10=1.3397        
C9-O11=1.2012        O10-C9=1.3397        O10-H25=0.9703       O11-C9=1.2012        C12-C8=1.5283        C12-H26=1.0871       
C12-H27=1.0863       C12-H28=1.0875       C13-C7=1.3880        C13-C14=1.3824       C13-H29=1.0807       C14-C4=1.3894        
C14-C13=1.3824       C14-H30=1.0808       C15-C2=1.5265        C15-H31=1.0880       C15-H32=1.0882       C15-H33=1.0877       
H16-C1=1.0875        H17-C1=1.0882        H18-C1=1.0877        H19-C2=1.0957        H20-C3=1.0919        H21-C3=1.0930        
H22-C5=1.0806        H23-C6=1.0797        H24-C8=1.0932        H25-O10=0.9703       H26-C12=1.0871       H27-C12=1.0863       
H28-C12=1.0875       H29-C13=1.0807       H30-C14=1.0808       H31-C15=1.0880       H32-C15=1.0882       H33-C15=1.0877       
 C  H  Rav=1.0873 sigma=0.0046  Rmin=1.0797  Rmax=1.0957    17
 C  C  Rav=1.4591 sigma=0.0676  Rmin=1.3824  Rmax=1.5384    13
 O  H  Rav=0.9703 sigma=0.0000  Rmin=0.9703  Rmax=0.9703     1
 O  C  Rav=1.2705 sigma=0.0693  Rmin=1.2012  Rmax=1.3397     2

 selected bond angles (degree)
 --------------------
H16-C1-C2=110.63               H17-C1-C2=110.41               H17-C1-H16=108.50              H18-C1-C2=110.44               
H18-C1-H16=108.46              H18-C1-H17=108.32              C3-C2-C1=110.80                C15-C2-C1=110.45               
C15-C2-C3=110.06               H19-C2-C1=108.47               H19-C2-C3=108.27               H19-C2-C15=108.72              
C4-C3-C2=111.99                H20-C3-C2=108.93               H20-C3-C4=109.89               H21-C3-C2=108.59               
H21-C3-C4=109.26               H21-C3-H20=108.11              C5-C4-C3=121.33                C14-C4-C3=120.36               
C14-C4-C5=118.31               C6-C5-C4=120.95                H22-C5-C4=119.57               H22-C5-C6=119.48               
C7-C6-C5=120.49                H23-C6-C5=119.83               H23-C6-C7=119.67               C8-C7-C6=120.58                
C13-C7-C6=118.79               C13-C7-C8=120.63               C9-C8-C7=106.47                C12-C8-C7=111.75               
C12-C8-C9=110.98               H24-C8-C7=108.94               H24-C8-C9=107.99               H24-C8-C12=110.55              
O10-C9-C8=111.45               O11-C9-C8=126.01               O11-C9-O10=122.51              H25-O10-C9=110.55              

 selected dihedral angles (degree)
 ---------------------------------
C3-C2-C1-H16=301.86           C3-C2-C1-H17= 61.99           C3-C2-C1-H18=181.77           C15-C2-C1-H16=179.63          
C15-C2-C1-H17=299.76          C15-C2-C1-H18= 59.54          H19-C2-C1-H16= 60.58          H19-C2-C1-H17=180.71          
H19-C2-C1-H18=300.48          C4-C3-C2-C1= 63.59            C4-C3-C2-C15=186.04           C4-C3-C2-H19=304.75           
H20-C3-C2-C1=301.84           H20-C3-C2-C15= 64.29          H20-C3-C2-H19=183.00          H21-C3-C2-C1=184.32           
H21-C3-C2-C15=306.77          H21-C3-C2-H19= 65.48          C5-C4-C3-C2=256.05            C5-C4-C3-H20= 17.25           
C5-C4-C3-H21=135.71           C14-C4-C3-C2= 75.04           C14-C4-C3-H20=196.25          C14-C4-C3-H21=314.70          
C6-C5-C4-C3=178.94            C6-C5-C4-C14=359.93           H22-C5-C4-C3=358.61           H22-C5-C4-C14=179.60          
C7-C6-C5-C4=359.77            C7-C6-C5-H22=180.10           H23-C6-C5-C4=178.92           H23-C6-C5-H22=359.25          
C8-C7-C6-C5=180.22            C8-C7-C6-H23=  1.06           C13-C7-C6-C5=  0.52           C13-C7-C6-H23=181.37          
C9-C8-C7-C6=300.33            C9-C8-C7-C13=120.01           C12-C8-C7-C6= 61.65           C12-C8-C7-C13=241.34          
H24-C8-C7-C6=184.10           H24-C8-C7-C13=  3.78          O10-C9-C8-C7=270.26           O10-C9-C8-C12=148.44          
O10-C9-C8-H24= 27.12          O11-C9-C8-C7= 88.26           O11-C9-C8-C12=326.44          O11-C9-C8-H24=205.12          
H25-O10-C9-C8=176.68          H25-O10-C9-O11=358.59         
           -------------------------------------------------
          |                Final Singlepoint                |
           -------------------------------------------------

          ...................................................
          :                      SETUP                      :
          :.................................................:
          :  # basis functions                  78          :
          :  # atomic orbitals                  78          :
          :  # shells                           48          :
          :  # electrons                        82          :
          :  max. iterations                   250          :
          :  Hamiltonian                  GFN2-xTB          :
          :  restarted?                      false          :
          :  GBSA solvation                  false          :
          :  PC potential                    false          :
          :  electronic temp.          300.0000000     K    :
          :  accuracy                    1.0000000          :
          :  -> integral cutoff          0.2500000E+02      :
          :  -> integral neglect         0.1000000E-07      :
          :  -> SCF convergence          0.1000000E-05 Eh   :
          :  -> wf. convergence          0.1000000E-03 e    :
          :  Broyden damping             0.4000000          :
          :  net charge                          0          :
          :  unpaired electrons                  0          :
          ...................................................

 iter      E             dE          RMSdq      gap      omega  full diag
   1    -45.8378033 -0.458378E+02  0.981E-05    4.09       0.0  T
   2    -45.8378033 -0.312639E-10  0.618E-05    4.09     281.8  T
   3    -45.8378033 -0.839151E-11  0.398E-05    4.09     437.8  T

   *** convergence criteria satisfied after 3 iterations ***

         #    Occupation            Energy/Eh            Energy/eV
      -------------------------------------------------------------
         1        2.0000           -0.7443089             -20.2537
       ...           ...                  ...                  ...
        35        2.0000           -0.4355232             -11.8512
        36        2.0000           -0.4282173             -11.6524
        37        2.0000           -0.4231635             -11.5149
        38        2.0000           -0.4187275             -11.3942
        39        2.0000           -0.4113916             -11.1945
        40        2.0000           -0.4022544             -10.9459
        41        2.0000           -0.3878537             -10.5540 (HOMO)
        42                         -0.2375016              -6.4627 (LUMO)
        43                         -0.2208085              -6.0085
        44                         -0.2144412              -5.8352
        45                         -0.0941127              -2.5609
        46                          0.0482877               1.3140
       ...                                ...                  ...
        78                          0.6591817              17.9372
      -------------------------------------------------------------
                  HL-Gap            0.1503522 Eh            4.0913 eV
             Fermi-level           -0.3126776 Eh           -8.5084 eV

 SCC (total)                   0 d,  0 h,  0 min,  0.022 sec
 SCC setup                      ...        0 min,  0.000 sec (  0.827%)
 Dispersion                     ...        0 min,  0.000 sec (  0.820%)
 classical contributions        ...        0 min,  0.000 sec (  0.392%)
 integral evaluation            ...        0 min,  0.004 sec ( 19.488%)
 iterations                     ...        0 min,  0.003 sec ( 15.492%)
 molecular gradient             ...        0 min,  0.013 sec ( 62.549%)
 printout                       ...        0 min,  0.000 sec (  0.408%)

         :::::::::::::::::::::::::::::::::::::::::::::::::::::
         ::                     SUMMARY                     ::
         :::::::::::::::::::::::::::::::::::::::::::::::::::::
         :: total energy             -45.171893024891 Eh    ::
         :: gradient norm              0.000644211690 Eh/a0 ::
         :: HOMO-LUMO gap              4.091290502343 eV    ::
         ::.................................................::
         :: SCC energy               -45.837671026806 Eh    ::
         :: -> isotropic ES            0.052086298338 Eh    ::
         :: -> anisotropic ES          0.006528420012 Eh    ::
         :: -> anisotropic XC          0.018458067408 Eh    ::
         :: -> dispersion             -0.029474779411 Eh    ::
         :: repulsion energy           0.665778001915 Eh    ::
         :: add. restraining           0.000000000000 Eh    ::
         :: total charge               0.000000000000 e     ::
         :::::::::::::::::::::::::::::::::::::::::::::::::::::

           -------------------------------------------------
          |                Property Printout                |
           -------------------------------------------------

    * Orbital Energies and Occupations

         #    Occupation            Energy/Eh            Energy/eV
      -------------------------------------------------------------
         1        2.0000           -0.7443089             -20.2537
       ...           ...                  ...                  ...
        29        2.0000           -0.4666903             -12.6993
        30        2.0000           -0.4622342             -12.5780
        31        2.0000           -0.4614601             -12.5570
        32        2.0000           -0.4521625             -12.3040
        33        2.0000           -0.4491429             -12.2218
        34        2.0000           -0.4422881             -12.0353
        35        2.0000           -0.4355232             -11.8512
        36        2.0000           -0.4282173             -11.6524
        37        2.0000           -0.4231635             -11.5149
        38        2.0000           -0.4187275             -11.3942
        39        2.0000           -0.4113916             -11.1945
        40        2.0000           -0.4022544             -10.9459
        41        2.0000           -0.3878537             -10.5540 (HOMO)
        42                         -0.2375016              -6.4627 (LUMO)
        43                         -0.2208085              -6.0085
        44                         -0.2144412              -5.8352
        45                         -0.0941127              -2.5609
        46                          0.0482877               1.3140
        47                          0.0809674               2.2032
        48                          0.0873383               2.3766
        49                          0.0972157               2.6454
        50                          0.1073837               2.9221
        51                          0.1229968               3.3469
        52                          0.1373756               3.7382
       ...                                ...                  ...
        78                          0.6591817              17.9372
      -------------------------------------------------------------
                  HL-Gap            0.1503522 Eh            4.0913 eV
             Fermi-level           -0.3126776 Eh           -8.5084 eV

     #   Z          covCN         q      C6AA      α(0)
     1   6 C        3.756    -0.106    22.577     6.775
     2   6 C        3.850    -0.006    20.643     6.462
     3   6 C        3.812    -0.068    21.801     6.646
     4   6 C        2.969     0.014    27.704     8.634
     5   6 C        2.924    -0.038    28.943     8.823
     6   6 C        2.922    -0.039    28.959     8.825
     7   6 C        2.982     0.009    27.806     8.650
     8   6 C        3.858    -0.042    21.293     6.563
     9   6 C        2.701     0.363    20.843     7.472
    10   8 O        1.660    -0.381    20.487     6.110
    11   8 O        0.856    -0.409    21.865     6.269
    12   6 C        3.756    -0.103    22.531     6.768
    13   6 C        2.922    -0.038    28.954     8.824
    14   6 C        2.925    -0.039    28.966     8.826
    15   6 C        3.756    -0.106    22.587     6.776
    16   1 H        0.925     0.035     2.514     2.479
    17   1 H        0.925     0.036     2.505     2.475
    18   1 H        0.925     0.034     2.537     2.491
    19   1 H        0.924     0.029     2.607     2.525
    20   1 H        0.924     0.039     2.467     2.456
    21   1 H        0.924     0.038     2.469     2.457
    22   1 H        0.926     0.034     2.529     2.487
    23   1 H        0.926     0.045     2.388     2.416
    24   1 H        0.924     0.058     2.220     2.330
    25   1 H        0.804     0.327     0.644     1.261
    26   1 H        0.925     0.045     2.380     2.413
    27   1 H        0.925     0.060     2.198     2.318
    28   1 H        0.925     0.043     2.411     2.428
    29   1 H        0.926     0.031     2.566     2.505
    30   1 H        0.926     0.032     2.558     2.501
    31   1 H        0.925     0.032     2.552     2.498
    32   1 H        0.925     0.036     2.504     2.475
    33   1 H        0.925     0.036     2.505     2.475

 Mol. C6AA /au·bohr⁶  :      10236.308527
 Mol. C8AA /au·bohr⁸  :     234130.205934
 Mol. α(0) /au        :        155.414438


Wiberg/Mayer (AO) data.
largest (>0.10) Wiberg bond orders for each atom

 ---------------------------------------------------------------------------
     #   Z sym  total        # sym  WBO       # sym  WBO       # sym  WBO
 ---------------------------------------------------------------------------
     1   6 C    3.997 --     2 C    1.010    17 H    0.986    18 H    0.986
                            16 H    0.985
     2   6 C    3.995 --     1 C    1.010    15 C    1.008     3 C    0.977
                            19 H    0.969
     3   6 C    3.996 --     4 C    1.015     2 C    0.977    20 H    0.974
                            21 H    0.968
     4   6 C    3.986 --     5 C    1.408    14 C    1.407     3 C    1.015
                             7 C    0.105
     5   6 C    3.991 --     6 C    1.449     4 C    1.408    22 H    0.969
                            13 C    0.107
     6   6 C    3.991 --     5 C    1.449     7 C    1.409    23 H    0.967
                            14 C    0.109
     7   6 C    3.985 --    13 C    1.409     6 C    1.409     8 C    0.967
                             4 C    0.105
     8   6 C    3.992 --    12 C    0.993     7 C    0.967    24 H    0.961
                             9 C    0.954
     9   6 C    3.907 --    11 O    1.766    10 O    1.127     8 C    0.954
    10   8 O    2.194 --     9 C    1.127    25 H    0.867    11 O    0.170
    11   8 O    2.041 --     9 C    1.766    10 O    0.170
    12   6 C    3.992 --     8 C    0.993    26 H    0.986    28 H    0.986
                            27 H    0.983
    13   6 C    3.991 --    14 C    1.449     7 C    1.409    29 H    0.968
                             5 C    0.107
    14   6 C    3.991 --    13 C    1.449     4 C    1.407    30 H    0.969
                             6 C    0.109
    15   6 C    3.996 --     2 C    1.008    31 H    0.987    32 H    0.987
                            33 H    0.986
    16   1 H    0.999 --     1 C    0.985
    17   1 H    0.999 --     1 C    0.986
    18   1 H    0.999 --     1 C    0.986
    19   1 H    0.999 --     2 C    0.969
    20   1 H    0.998 --     3 C    0.974
    21   1 H    0.998 --     3 C    0.968
    22   1 H    0.999 --     5 C    0.969
    23   1 H    0.998 --     6 C    0.967
    24   1 H    0.996 --     8 C    0.961
    25   1 H    0.893 --    10 O    0.867
    26   1 H    0.998 --    12 C    0.986
    27   1 H    0.996 --    12 C    0.983
    28   1 H    0.997 --    12 C    0.986
    29   1 H    0.999 --    13 C    0.968
    30   1 H    0.998 --    14 C    0.969
    31   1 H    0.999 --    15 C    0.987
    32   1 H    0.999 --    15 C    0.987
    33   1 H    0.998 --    15 C    0.986
 ---------------------------------------------------------------------------

Topologies differ in total number of bonds
Writing topology from bond orders to xtbtopo.mol

molecular dipole:
                 x           y           z       tot (Debye)
 q only:       -0.495      -0.041      -0.554
   full:       -0.369       0.072      -0.636       1.878
molecular quadrupole (traceless):
                xx          xy          yy          xz          yz          zz
 q only:       -0.437      -0.007       3.992      -7.776      -1.036      -3.555
  q+dip:        1.684      -0.025       1.339      -8.407       1.301      -3.023
   full:        1.706       0.831       3.390      -8.703       0.097      -5.096

           -------------------------------------------------
          |                Geometry Summary                 |
           -------------------------------------------------

      molecular mass/u    :      206.2813100
   center of mass at/Å    :        0.7320743       0.1099192       0.0171065
  moments of inertia/u·Å² :        0.3208336E+03   0.2011073E+04   0.2060782E+04
rotational constants/cm⁻¹ :        0.5254322E-01   0.8382409E-02   0.8180211E-02

 * 30 selected distances

     #   Z          #   Z                                           value/Å
     1   6 C        2   6 C                                       1.5257048
     2   6 C        3   6 C                                       1.5383842 (max)
     4   6 C        5   6 C                                       1.3889903
     5   6 C        6   6 C                                       1.3826442
     6   6 C        7   6 C                                       1.3888671
     9   6 C       10   8 O                                       1.3397162
     9   6 C       11   8 O                                       1.2012042
     8   6 C       12   6 C                                       1.5283474
     7   6 C       13   6 C                                       1.3879819
     4   6 C       14   6 C                                       1.3894362
    13   6 C       14   6 C                                       1.3824159
     2   6 C       15   6 C                                       1.5264705
     1   6 C       16   1 H                                       1.0874711
     1   6 C       17   1 H                                       1.0881872
     1   6 C       18   1 H                                       1.0877179
     2   6 C       19   1 H                                       1.0957448
     3   6 C       20   1 H                                       1.0918622
     3   6 C       21   1 H                                       1.0929545
     5   6 C       22   1 H                                       1.0805902
     6   6 C       23   1 H                                       1.0796545
     8   6 C       24   1 H                                       1.0932454
    10   8 O       25   1 H                                       0.9702526 (min)
    12   6 C       26   1 H                                       1.0870993
    12   6 C       27   1 H                                       1.0863197
    12   6 C       28   1 H                                       1.0875309
    13   6 C       29   1 H                                       1.0807211
    14   6 C       30   1 H                                       1.0807940
    15   6 C       31   1 H                                       1.0879568
    15   6 C       32   1 H                                       1.0882000
    15   6 C       33   1 H                                       1.0877158

 * 4 distinct bonds (by element types)

   Z      Z             #   av. dist./Å        max./Å        min./Å
   1 H    6 C          17     1.0872803     1.0957448     1.0796545
   6 C    6 C          10     1.4439243     1.5383842     1.3824159
   1 H    8 O           1     0.9702526     0.9702526     0.9702526
   6 C    8 O           2     1.2704602     1.3397162     1.2012042


optimized geometry written to: xtbopt.xyz


           -------------------------------------------------
          | TOTAL ENERGY              -45.171893024891 Eh   |
          | GRADIENT NORM               0.000644211690 Eh/α |
          | HOMO-LUMO GAP               4.091290502343 eV   |
           -------------------------------------------------

------------------------------------------------------------------------
 * finished run on 2025/05/15 at 16:30:37.943     
------------------------------------------------------------------------
 total:
 * wall-time:     0 d,  0 h,  0 min,  0.642 sec
 *  cpu-time:     0 d,  0 h,  0 min,  0.438 sec
 * ratio c/w:     0.682 speedup
 SCF:
 * wall-time:     0 d,  0 h,  0 min,  0.032 sec
 *  cpu-time:     0 d,  0 h,  0 min,  0.031 sec
 * ratio c/w:     0.994 speedup
 ANC optimizer:
 * wall-time:     0 d,  0 h,  0 min,  0.601 sec
 *  cpu-time:     0 d,  0 h,  0 min,  0.397 sec
 * ratio c/w:     0.662 speedup



----- Single-point -----
      -----------------------------------------------------------      
     |                   =====================                   |     
     |                           x T B                           |     
     |                   =====================                   |     
     |                         S. Grimme                         |     
     |          Mulliken Center for Theoretical Chemistry        |     
     |                    University of Bonn                     |     
      -----------------------------------------------------------      

   * xtb version 6.7.1 (edcfbbe) compiled by 'conda@3ef47c1a292c' on 2024-11-25

   xtb is free software: you can redistribute it and/or modify it under
   the terms of the GNU Lesser General Public License as published by
   the Free Software Foundation, either version 3 of the License, or
   (at your option) any later version.
   
   xtb is distributed in the hope that it will be useful,
   but WITHOUT ANY WARRANTY; without even the implied warranty of
   MERCHANTABILITY or FITNESS FOR A PARTICULAR PURPOSE.  See the
   GNU Lesser General Public License for more details.
   
   Cite this work as:
   * C. Bannwarth, E. Caldeweyher, S. Ehlert, A. Hansen, P. Pracht,
     J. Seibert, S. Spicher, S. Grimme, WIREs Comput. Mol. Sci., 2020, 11,
     e01493. DOI: 10.1002/wcms.1493
   
   for GFN2-xTB:
   * C. Bannwarth, S. Ehlert and S. Grimme., J. Chem. Theory Comput., 2019,
     15, 1652-1671. DOI: 10.1021/acs.jctc.8b01176
   for GFN1-xTB:
   * S. Grimme, C. Bannwarth, P. Shushkov, J. Chem. Theory Comput., 2017,
     13, 1989-2009. DOI: 10.1021/acs.jctc.7b00118
   for GFN0-xTB:
   * P. Pracht, E. Caldeweyher, S. Ehlert, S. Grimme, ChemRxiv, 2019, preprint.
     DOI: 10.26434/chemrxiv.8326202.v1
   for GFN-FF:
   * S. Spicher and S. Grimme, Angew. Chem. Int. Ed., 2020, 59, 15665-15673.
     DOI: 10.1002/anie.202004239
   
   for ALPB and GBSA implicit solvation:
   * S. Ehlert, M. Stahn, S. Spicher, S. Grimme, J. Chem. Theory Comput.,
     2021, 17, 4250-4261. DOI: 10.1021/acs.jctc.1c00471
   
   for ddCOSMO and CPCM-X implicit solvation:
   * M. Stahn, S. Ehlert, S. Grimme, J. Phys. Chem. A,
     2023, XX, XXXX-XXXX. DOI: 10.1021/acs.jpca.3c04382
   
   for DFT-D4:
   * E. Caldeweyher, C. Bannwarth and S. Grimme, J. Chem. Phys., 2017,
     147, 034112. DOI: 10.1063/1.4993215
   * E. Caldeweyher, S. Ehlert, A. Hansen, H. Neugebauer, S. Spicher,
     C. Bannwarth and S. Grimme, J. Chem. Phys., 2019, 150, 154122.
     DOI: 10.1063/1.5090222
   * E. Caldeweyher, J.-M. Mewes, S. Ehlert and S. Grimme, Phys. Chem. Chem. Phys.
     2020, 22, 8499-8512. DOI: 10.1039/D0CP00502A
   
   for sTDA-xTB:
   * S. Grimme and C. Bannwarth, J. Chem. Phys., 2016, 145, 054103.
     DOI: 10.1063/1.4959605
   
   in the mass-spec context:
   * V. Asgeirsson, C. Bauer and S. Grimme, Chem. Sci., 2017, 8, 4879.
     DOI: 10.1039/c7sc00601b
   * J. Koopman and S. Grimme, ACS Omega 2019, 4, 12, 15120-15133.
     DOI: 10.1021/acsomega.9b02011
   
   for metadynamics refer to:
   * S. Grimme, J. Chem. Theory Comput., 2019, 155, 2847-2862
     DOI: 10.1021/acs.jctc.9b00143
   
   for SPH calculations refer to:
   * S. Spicher and S. Grimme, J. Chem. Theory Comput., 2021, 17, 1701-1714
     DOI: 10.1021/acs.jctc.0c01306
   
   for ONIOM refer to:
   * C. Plett, A. Katbashev, S. Ehlert, S. Grimme, M. Bursch,
     Phys. Chem. Chem. Phys., 2023, 25, 17860-17868. DOI: 10.1039/D3CP02178E
   
   for DIPRO refer to:
   * J. Kohn, N. Gildemeister, S. Grimme, D. Fazzi, A. Hansen,
     J. Chem. Phys., 2023, just accepted.
   
   for PTB refer to:
   * S. Grimme, M. Mueller, A. Hansen, J. Chem. Phys., 2023, 158, 124111.
     DOI: 10.1063/5.0137838
   
   with help from (in alphabetical order)
   P. Atkinson, C. Bannwarth, F. Bohle, G. Brandenburg, E. Caldeweyher
   M. Checinski, S. Dohm, S. Ehlert, S. Ehrlich, I. Gerasimov, C. Hölzer
   A. Katbashev, J. Kohn, J. Koopman, C. Lavigne, S. Lehtola, F. März, M. Müller,
   F. Musil, H. Neugebauer, J. Pisarek, C. Plett, P. Pracht, F. Pultar,
   J. Seibert, P. Shushkov, S. Spicher, M. Stahn, M. Steiner, T. Strunk,
   J. Stückrath, T. Rose, and J. Unsleber
   
 * started run on 2025/05/15 at 16:30:37.957     
   ID    Z sym.   atoms
    1    6 C      1-9, 12-15
    2    8 O      10, 11
    3    1 H      16-33

           -------------------------------------------------
          |                Calculation Setup                |
           -------------------------------------------------

          program call               : xtb /rds/general/user/hgt20/home/callum/QDESCP/Ibuprofen_rdkit_conf_3/Ibuprofen_rdkit_conf_3.xyz --acc 1 --gfn 2 --chrg 0 --uhf 0 --etemp 300 --input /rds/general/user/hgt20/home/callum/QDESCP/Ibuprofen_rdkit_conf_3/Ibuprofen_rdkit_conf_3_xtb.inp -P 1
          hostname                   : login-c
          coordinate file            : /rds/general/user/hgt20/home/callum/QDESCP/Ibuprofen_rdkit_conf_3/Ibuprofen_rdkit_conf_3.xyz
          omp threads                :                     1


           -------------------------------------------------
          |                 G F N 2 - x T B                 |
           -------------------------------------------------

        Reference                      10.1021/acs.jctc.8b01176
      * Hamiltonian:
        H0-scaling (s, p, d)           1.850000    2.230000    2.230000
        zeta-weighting                 0.500000
      * Dispersion:
        s8                             2.700000
        a1                             0.520000
        a2                             5.000000
        s9                             5.000000
      * Repulsion:
        kExp                           1.500000    1.000000
        rExp                           1.000000
      * Coulomb:
        alpha                          2.000000
        third order                    shell-resolved
        anisotropic                    true
        a3                             3.000000
        a5                             4.000000
        cn-shift                       1.200000
        cn-exp                         4.000000
        max-rad                        5.000000

q/qsh data taken from xtbrestart
CAMM data taken from xtbrestart

          ...................................................
          :                      SETUP                      :
          :.................................................:
          :  # basis functions                  78          :
          :  # atomic orbitals                  78          :
          :  # shells                           48          :
          :  # electrons                        82          :
          :  max. iterations                   250          :
          :  Hamiltonian                  GFN2-xTB          :
          :  restarted?                       true          :
          :  GBSA solvation                  false          :
          :  PC potential                    false          :
          :  electronic temp.          300.0000000     K    :
          :  accuracy                    1.0000000          :
          :  -> integral cutoff          0.2500000E+02      :
          :  -> integral neglect         0.1000000E-07      :
          :  -> SCF convergence          0.1000000E-05 Eh   :
          :  -> wf. convergence          0.1000000E-03 e    :
          :  Broyden damping             0.4000000          :
          :  net charge                          0          :
          :  unpaired electrons                  0          :
          ...................................................

 iter      E             dE          RMSdq      gap      omega  full diag
   1    -45.8378033 -0.458378E+02  0.700E-06    4.09       0.0  T
   2    -45.8378033 -0.767386E-12  0.441E-06    4.09    3949.1  T
   3    -45.8378033 -0.177636E-12  0.272E-06    4.09    6407.8  T

   *** convergence criteria satisfied after 3 iterations ***

         #    Occupation            Energy/Eh            Energy/eV
      -------------------------------------------------------------
         1        2.0000           -0.7443091             -20.2537
       ...           ...                  ...                  ...
        35        2.0000           -0.4355231             -11.8512
        36        2.0000           -0.4282172             -11.6524
        37        2.0000           -0.4231634             -11.5149
        38        2.0000           -0.4187275             -11.3942
        39        2.0000           -0.4113916             -11.1945
        40        2.0000           -0.4022545             -10.9459
        41        2.0000           -0.3878537             -10.5540 (HOMO)
        42                         -0.2375017              -6.4627 (LUMO)
        43                         -0.2208086              -6.0085
        44                         -0.2144413              -5.8352
        45                         -0.0941127              -2.5609
        46                          0.0482874               1.3140
       ...                                ...                  ...
        78                          0.6591817              17.9372
      -------------------------------------------------------------
                  HL-Gap            0.1503520 Eh            4.0913 eV
             Fermi-level           -0.3126777 Eh           -8.5084 eV

 SCC (total)                   0 d,  0 h,  0 min,  0.023 sec
 SCC setup                      ...        0 min,  0.000 sec (  0.991%)
 Dispersion                     ...        0 min,  0.000 sec (  1.280%)
 classical contributions        ...        0 min,  0.000 sec (  0.468%)
 integral evaluation            ...        0 min,  0.004 sec ( 19.045%)
 iterations                     ...        0 min,  0.005 sec ( 19.499%)
 molecular gradient             ...        0 min,  0.014 sec ( 58.077%)
 printout                       ...        0 min,  0.000 sec (  0.588%)

         :::::::::::::::::::::::::::::::::::::::::::::::::::::
         ::                     SUMMARY                     ::
         :::::::::::::::::::::::::::::::::::::::::::::::::::::
         :: total energy             -45.171893024909 Eh    ::
         :: gradient norm              0.000644222888 Eh/a0 ::
         :: HOMO-LUMO gap              4.091287440639 eV    ::
         ::.................................................::
         :: SCC energy               -45.837671026824 Eh    ::
         :: -> isotropic ES            0.052086131390 Eh    ::
         :: -> anisotropic ES          0.006528378337 Eh    ::
         :: -> anisotropic XC          0.018458062924 Eh    ::
         :: -> dispersion             -0.029474780102 Eh    ::
         :: repulsion energy           0.665778001915 Eh    ::
         :: add. restraining           0.000000000000 Eh    ::
         :: total charge              -0.000000000000 e     ::
         :::::::::::::::::::::::::::::::::::::::::::::::::::::

           -------------------------------------------------
          |                Property Printout                |
           -------------------------------------------------

    * Orbital Energies and Occupations

         #    Occupation            Energy/Eh            Energy/eV
      -------------------------------------------------------------
         1        2.0000           -0.7443091             -20.2537
       ...           ...                  ...                  ...
        29        2.0000           -0.4666903             -12.6993
        30        2.0000           -0.4622342             -12.5780
        31        2.0000           -0.4614601             -12.5570
        32        2.0000           -0.4521624             -12.3040
        33        2.0000           -0.4491428             -12.2218
        34        2.0000           -0.4422881             -12.0353
        35        2.0000           -0.4355231             -11.8512
        36        2.0000           -0.4282172             -11.6524
        37        2.0000           -0.4231634             -11.5149
        38        2.0000           -0.4187275             -11.3942
        39        2.0000           -0.4113916             -11.1945
        40        2.0000           -0.4022545             -10.9459
        41        2.0000           -0.3878537             -10.5540 (HOMO)
        42                         -0.2375017              -6.4627 (LUMO)
        43                         -0.2208086              -6.0085
        44                         -0.2144413              -5.8352
        45                         -0.0941127              -2.5609
        46                          0.0482874               1.3140
        47                          0.0809676               2.2032
        48                          0.0873381               2.3766
        49                          0.0972158               2.6454
        50                          0.1073839               2.9221
        51                          0.1229968               3.3469
        52                          0.1373756               3.7382
       ...                                ...                  ...
        78                          0.6591817              17.9372
      -------------------------------------------------------------
                  HL-Gap            0.1503520 Eh            4.0913 eV
             Fermi-level           -0.3126777 Eh           -8.5084 eV

     #   Z          covCN         q      C6AA      α(0)
     1   6 C        3.756    -0.106    22.577     6.775
     2   6 C        3.850    -0.006    20.643     6.462
     3   6 C        3.812    -0.068    21.801     6.646
     4   6 C        2.969     0.014    27.704     8.634
     5   6 C        2.924    -0.038    28.943     8.823
     6   6 C        2.922    -0.039    28.959     8.825
     7   6 C        2.982     0.009    27.806     8.650
     8   6 C        3.858    -0.042    21.293     6.563
     9   6 C        2.701     0.363    20.843     7.472
    10   8 O        1.660    -0.381    20.487     6.110
    11   8 O        0.856    -0.409    21.865     6.269
    12   6 C        3.756    -0.103    22.531     6.768
    13   6 C        2.922    -0.038    28.954     8.824
    14   6 C        2.925    -0.039    28.966     8.826
    15   6 C        3.756    -0.106    22.587     6.776
    16   1 H        0.925     0.035     2.514     2.479
    17   1 H        0.925     0.036     2.505     2.475
    18   1 H        0.925     0.034     2.537     2.491
    19   1 H        0.924     0.029     2.607     2.525
    20   1 H        0.924     0.039     2.467     2.456
    21   1 H        0.924     0.038     2.469     2.457
    22   1 H        0.926     0.034     2.529     2.487
    23   1 H        0.926     0.045     2.388     2.416
    24   1 H        0.924     0.058     2.220     2.330
    25   1 H        0.804     0.327     0.644     1.261
    26   1 H        0.925     0.045     2.380     2.413
    27   1 H        0.925     0.060     2.198     2.318
    28   1 H        0.925     0.043     2.411     2.428
    29   1 H        0.926     0.031     2.566     2.505
    30   1 H        0.926     0.032     2.558     2.501
    31   1 H        0.925     0.032     2.552     2.498
    32   1 H        0.925     0.036     2.504     2.475
    33   1 H        0.925     0.036     2.505     2.475

 Mol. C6AA /au·bohr⁶  :      10236.308558
 Mol. C8AA /au·bohr⁸  :     234130.207262
 Mol. α(0) /au        :        155.414438


Wiberg/Mayer (AO) data.
largest (>0.10) Wiberg bond orders for each atom

 ---------------------------------------------------------------------------
     #   Z sym  total        # sym  WBO       # sym  WBO       # sym  WBO
 ---------------------------------------------------------------------------
     1   6 C    3.997 --     2 C    1.010    17 H    0.986    18 H    0.986
                            16 H    0.985
     2   6 C    3.995 --     1 C    1.010    15 C    1.008     3 C    0.977
                            19 H    0.969
     3   6 C    3.996 --     4 C    1.015     2 C    0.977    20 H    0.974
                            21 H    0.968
     4   6 C    3.986 --     5 C    1.408    14 C    1.407     3 C    1.015
                             7 C    0.105
     5   6 C    3.991 --     6 C    1.449     4 C    1.408    22 H    0.969
                            13 C    0.107
     6   6 C    3.991 --     5 C    1.449     7 C    1.409    23 H    0.967
                            14 C    0.109
     7   6 C    3.985 --    13 C    1.409     6 C    1.409     8 C    0.967
                             4 C    0.105
     8   6 C    3.992 --    12 C    0.993     7 C    0.967    24 H    0.961
                             9 C    0.954
     9   6 C    3.907 --    11 O    1.766    10 O    1.127     8 C    0.954
    10   8 O    2.194 --     9 C    1.127    25 H    0.867    11 O    0.170
    11   8 O    2.041 --     9 C    1.766    10 O    0.170
    12   6 C    3.992 --     8 C    0.993    26 H    0.986    28 H    0.986
                            27 H    0.983
    13   6 C    3.991 --    14 C    1.449     7 C    1.409    29 H    0.968
                             5 C    0.107
    14   6 C    3.991 --    13 C    1.449     4 C    1.407    30 H    0.969
                             6 C    0.109
    15   6 C    3.996 --     2 C    1.008    31 H    0.987    32 H    0.987
                            33 H    0.986
    16   1 H    0.999 --     1 C    0.985
    17   1 H    0.999 --     1 C    0.986
    18   1 H    0.999 --     1 C    0.986
    19   1 H    0.999 --     2 C    0.969
    20   1 H    0.998 --     3 C    0.974
    21   1 H    0.998 --     3 C    0.968
    22   1 H    0.999 --     5 C    0.969
    23   1 H    0.998 --     6 C    0.967
    24   1 H    0.996 --     8 C    0.961
    25   1 H    0.893 --    10 O    0.867
    26   1 H    0.998 --    12 C    0.986
    27   1 H    0.996 --    12 C    0.983
    28   1 H    0.997 --    12 C    0.986
    29   1 H    0.999 --    13 C    0.968
    30   1 H    0.998 --    14 C    0.969
    31   1 H    0.999 --    15 C    0.987
    32   1 H    0.999 --    15 C    0.987
    33   1 H    0.998 --    15 C    0.986
 ---------------------------------------------------------------------------

Topologies differ in total number of bonds
Writing topology from bond orders to xtbtopo.mol

molecular dipole:
                 x           y           z       tot (Debye)
 q only:       -0.495      -0.041      -0.554
   full:       -0.369       0.072      -0.636       1.878
molecular quadrupole (traceless):
                xx          xy          yy          xz          yz          zz
 q only:       -0.437      -0.007       3.992      -7.776      -1.036      -3.555
  q+dip:        1.684      -0.025       1.339      -8.407       1.301      -3.023
   full:        1.706       0.831       3.390      -8.703       0.097      -5.096


           -------------------------------------------------
          | TOTAL ENERGY              -45.171893024909 Eh   |
          | GRADIENT NORM               0.000644222888 Eh/α |
          | HOMO-LUMO GAP               4.091287440639 eV   |
           -------------------------------------------------

------------------------------------------------------------------------
 * finished run on 2025/05/15 at 16:30:38.010     
------------------------------------------------------------------------
 total:
 * wall-time:     0 d,  0 h,  0 min,  0.053 sec
 *  cpu-time:     0 d,  0 h,  0 min,  0.033 sec
 * ratio c/w:     0.617 speedup
 SCF:
 * wall-time:     0 d,  0 h,  0 min,  0.024 sec
 *  cpu-time:     0 d,  0 h,  0 min,  0.023 sec
 * ratio c/w:     0.994 speedup



----- FOD -----
      -----------------------------------------------------------      
     |                   =====================                   |     
     |                           x T B                           |     
     |                   =====================                   |     
     |                         S. Grimme                         |     
     |          Mulliken Center for Theoretical Chemistry        |     
     |                    University of Bonn                     |     
      -----------------------------------------------------------      

   * xtb version 6.7.1 (edcfbbe) compiled by 'conda@3ef47c1a292c' on 2024-11-25

   xtb is free software: you can redistribute it and/or modify it under
   the terms of the GNU Lesser General Public License as published by
   the Free Software Foundation, either version 3 of the License, or
   (at your option) any later version.
   
   xtb is distributed in the hope that it will be useful,
   but WITHOUT ANY WARRANTY; without even the implied warranty of
   MERCHANTABILITY or FITNESS FOR A PARTICULAR PURPOSE.  See the
   GNU Lesser General Public License for more details.
   
   Cite this work as:
   * C. Bannwarth, E. Caldeweyher, S. Ehlert, A. Hansen, P. Pracht,
     J. Seibert, S. Spicher, S. Grimme, WIREs Comput. Mol. Sci., 2020, 11,
     e01493. DOI: 10.1002/wcms.1493
   
   for GFN2-xTB:
   * C. Bannwarth, S. Ehlert and S. Grimme., J. Chem. Theory Comput., 2019,
     15, 1652-1671. DOI: 10.1021/acs.jctc.8b01176
   for GFN1-xTB:
   * S. Grimme, C. Bannwarth, P. Shushkov, J. Chem. Theory Comput., 2017,
     13, 1989-2009. DOI: 10.1021/acs.jctc.7b00118
   for GFN0-xTB:
   * P. Pracht, E. Caldeweyher, S. Ehlert, S. Grimme, ChemRxiv, 2019, preprint.
     DOI: 10.26434/chemrxiv.8326202.v1
   for GFN-FF:
   * S. Spicher and S. Grimme, Angew. Chem. Int. Ed., 2020, 59, 15665-15673.
     DOI: 10.1002/anie.202004239
   
   for ALPB and GBSA implicit solvation:
   * S. Ehlert, M. Stahn, S. Spicher, S. Grimme, J. Chem. Theory Comput.,
     2021, 17, 4250-4261. DOI: 10.1021/acs.jctc.1c00471
   
   for ddCOSMO and CPCM-X implicit solvation:
   * M. Stahn, S. Ehlert, S. Grimme, J. Phys. Chem. A,
     2023, XX, XXXX-XXXX. DOI: 10.1021/acs.jpca.3c04382
   
   for DFT-D4:
   * E. Caldeweyher, C. Bannwarth and S. Grimme, J. Chem. Phys., 2017,
     147, 034112. DOI: 10.1063/1.4993215
   * E. Caldeweyher, S. Ehlert, A. Hansen, H. Neugebauer, S. Spicher,
     C. Bannwarth and S. Grimme, J. Chem. Phys., 2019, 150, 154122.
     DOI: 10.1063/1.5090222
   * E. Caldeweyher, J.-M. Mewes, S. Ehlert and S. Grimme, Phys. Chem. Chem. Phys.
     2020, 22, 8499-8512. DOI: 10.1039/D0CP00502A
   
   for sTDA-xTB:
   * S. Grimme and C. Bannwarth, J. Chem. Phys., 2016, 145, 054103.
     DOI: 10.1063/1.4959605
   
   in the mass-spec context:
   * V. Asgeirsson, C. Bauer and S. Grimme, Chem. Sci., 2017, 8, 4879.
     DOI: 10.1039/c7sc00601b
   * J. Koopman and S. Grimme, ACS Omega 2019, 4, 12, 15120-15133.
     DOI: 10.1021/acsomega.9b02011
   
   for metadynamics refer to:
   * S. Grimme, J. Chem. Theory Comput., 2019, 155, 2847-2862
     DOI: 10.1021/acs.jctc.9b00143
   
   for SPH calculations refer to:
   * S. Spicher and S. Grimme, J. Chem. Theory Comput., 2021, 17, 1701-1714
     DOI: 10.1021/acs.jctc.0c01306
   
   for ONIOM refer to:
   * C. Plett, A. Katbashev, S. Ehlert, S. Grimme, M. Bursch,
     Phys. Chem. Chem. Phys., 2023, 25, 17860-17868. DOI: 10.1039/D3CP02178E
   
   for DIPRO refer to:
   * J. Kohn, N. Gildemeister, S. Grimme, D. Fazzi, A. Hansen,
     J. Chem. Phys., 2023, just accepted.
   
   for PTB refer to:
   * S. Grimme, M. Mueller, A. Hansen, J. Chem. Phys., 2023, 158, 124111.
     DOI: 10.1063/5.0137838
   
   with help from (in alphabetical order)
   P. Atkinson, C. Bannwarth, F. Bohle, G. Brandenburg, E. Caldeweyher
   M. Checinski, S. Dohm, S. Ehlert, S. Ehrlich, I. Gerasimov, C. Hölzer
   A. Katbashev, J. Kohn, J. Koopman, C. Lavigne, S. Lehtola, F. März, M. Müller,
   F. Musil, H. Neugebauer, J. Pisarek, C. Plett, P. Pracht, F. Pultar,
   J. Seibert, P. Shushkov, S. Spicher, M. Stahn, M. Steiner, T. Strunk,
   J. Stückrath, T. Rose, and J. Unsleber
   
 * started run on 2025/05/15 at 16:30:38.497     
   ID    Z sym.   atoms
    1    6 C      1-9, 12-15
    2    8 O      10, 11
    3    1 H      16-33

           -------------------------------------------------
          |                Calculation Setup                |
           -------------------------------------------------

          program call               : xtb /rds/general/user/hgt20/home/callum/QDESCP/Ibuprofen_rdkit_conf_3/Ibuprofen_rdkit_conf_3.xyz --fod --gfn 2 --chrg 0 --acc 1 --uhf 0 --etemp 300 -P 1
          hostname                   : login-c
          coordinate file            : /rds/general/user/hgt20/home/callum/QDESCP/Ibuprofen_rdkit_conf_3/Ibuprofen_rdkit_conf_3.xyz
          omp threads                :                     1


           -------------------------------------------------
          |                 G F N 2 - x T B                 |
           -------------------------------------------------

        Reference                      10.1021/acs.jctc.8b01176
      * Hamiltonian:
        H0-scaling (s, p, d)           1.850000    2.230000    2.230000
[...]
   the terms of the GNU Lesser General Public License as published by
   the Free Software Foundation, either version 3 of the License, or
   (at your option) any later version.
   
   xtb is distributed in the hope that it will be useful,
   but WITHOUT ANY WARRANTY; without even the implied warranty of
   MERCHANTABILITY or FITNESS FOR A PARTICULAR PURPOSE.  See the
   GNU Lesser General Public License for more details.
   
   Cite this work as:
   * C. Bannwarth, E. Caldeweyher, S. Ehlert, A. Hansen, P. Pracht,
     J. Seibert, S. Spicher, S. Grimme, WIREs Comput. Mol. Sci., 2020, 11,
     e01493. DOI: 10.1002/wcms.1493
   
   for GFN2-xTB:
   * C. Bannwarth, S. Ehlert and S. Grimme., J. Chem. Theory Comput., 2019,
     15, 1652-1671. DOI: 10.1021/acs.jctc.8b01176
   for GFN1-xTB:
   * S. Grimme, C. Bannwarth, P. Shushkov, J. Chem. Theory Comput., 2017,
     13, 1989-2009. DOI: 10.1021/acs.jctc.7b00118
   for GFN0-xTB:
   * P. Pracht, E. Caldeweyher, S. Ehlert, S. Grimme, ChemRxiv, 2019, preprint.
     DOI: 10.26434/chemrxiv.8326202.v1
   for GFN-FF:
   * S. Spicher and S. Grimme, Angew. Chem. Int. Ed., 2020, 59, 15665-15673.
     DOI: 10.1002/anie.202004239
   
   for ALPB and GBSA implicit solvation:
   * S. Ehlert, M. Stahn, S. Spicher, S. Grimme, J. Chem. Theory Comput.,
     2021, 17, 4250-4261. DOI: 10.1021/acs.jctc.1c00471
   
   for ddCOSMO and CPCM-X implicit solvation:
   * M. Stahn, S. Ehlert, S. Grimme, J. Phys. Chem. A,
     2023, XX, XXXX-XXXX. DOI: 10.1021/acs.jpca.3c04382
   
   for DFT-D4:
   * E. Caldeweyher, C. Bannwarth and S. Grimme, J. Chem. Phys., 2017,
     147, 034112. DOI: 10.1063/1.4993215
   * E. Caldeweyher, S. Ehlert, A. Hansen, H. Neugebauer, S. Spicher,
     C. Bannwarth and S. Grimme, J. Chem. Phys., 2019, 150, 154122.
     DOI: 10.1063/1.5090222
   * E. Caldeweyher, J.-M. Mewes, S. Ehlert and S. Grimme, Phys. Chem. Chem. Phys.
     2020, 22, 8499-8512. DOI: 10.1039/D0CP00502A
   
   for sTDA-xTB:
   * S. Grimme and C. Bannwarth, J. Chem. Phys., 2016, 145, 054103.
     DOI: 10.1063/1.4959605
   
   in the mass-spec context:
   * V. Asgeirsson, C. Bauer and S. Grimme, Chem. Sci., 2017, 8, 4879.
     DOI: 10.1039/c7sc00601b
   * J. Koopman and S. Grimme, ACS Omega 2019, 4, 12, 15120-15133.
     DOI: 10.1021/acsomega.9b02011
   
   for metadynamics refer to:
   * S. Grimme, J. Chem. Theory Comput., 2019, 155, 2847-2862
     DOI: 10.1021/acs.jctc.9b00143
   
   for SPH calculations refer to:
   * S. Spicher and S. Grimme, J. Chem. Theory Comput., 2021, 17, 1701-1714
     DOI: 10.1021/acs.jctc.0c01306
   
   for ONIOM refer to:
   * C. Plett, A. Katbashev, S. Ehlert, S. Grimme, M. Bursch,
     Phys. Chem. Chem. Phys., 2023, 25, 17860-17868. DOI: 10.1039/D3CP02178E
   
   for DIPRO refer to:
   * J. Kohn, N. Gildemeister, S. Grimme, D. Fazzi, A. Hansen,
     J. Chem. Phys., 2023, just accepted.
   
   for PTB refer to:
   * S. Grimme, M. Mueller, A. Hansen, J. Chem. Phys., 2023, 158, 124111.
     DOI: 10.1063/5.0137838
   
   with help from (in alphabetical order)
   P. Atkinson, C. Bannwarth, F. Bohle, G. Brandenburg, E. Caldeweyher
   M. Checinski, S. Dohm, S. Ehlert, S. Ehrlich, I. Gerasimov, C. Hölzer
   A. Katbashev, J. Kohn, J. Koopman, C. Lavigne, S. Lehtola, F. März, M. Müller,
   F. Musil, H. Neugebauer, J. Pisarek, C. Plett, P. Pracht, F. Pultar,
   J. Seibert, P. Shushkov, S. Spicher, M. Stahn, M. Steiner, T. Strunk,
   J. Stückrath, T. Rose, and J. Unsleber
   
 * started run on 2025/05/15 at 16:30:39.125     
   ID    Z sym.   atoms
    1    6 C      1-9, 12-15
    2    8 O      10, 11
    3    1 H      16-33

           -------------------------------------------------
          |                Calculation Setup                |
           -------------------------------------------------

          program call               : xtb /rds/general/user/hgt20/home/callum/QDESCP/Ibuprofen_rdkit_conf_3/Ibuprofen_rdkit_conf_3.xyz --acc 1 --gfn 2 --chrg 0 --uhf 2 --etemp 300 --input /rds/general/user/hgt20/home/callum/QDESCP/Ibuprofen_rdkit_conf_3/Ibuprofen_rdkit_conf_3_xtb.inp -P 1
          hostname                   : login-c
          coordinate file            : /rds/general/user/hgt20/home/callum/QDESCP/Ibuprofen_rdkit_conf_3/Ibuprofen_rdkit_conf_3.xyz
          omp threads                :                     1


           -------------------------------------------------
          |                 G F N 2 - x T B                 |
           -------------------------------------------------

        Reference                      10.1021/acs.jctc.8b01176
      * Hamiltonian:
        H0-scaling (s, p, d)           1.850000    2.230000    2.230000
        zeta-weighting                 0.500000
      * Dispersion:
        s8                             2.700000
        a1                             0.520000
        a2                             5.000000
        s9                             5.000000
      * Repulsion:
        kExp                           1.500000    1.000000
        rExp                           1.000000
      * Coulomb:
        alpha                          2.000000
        third order                    shell-resolved
        anisotropic                    true
        a3                             3.000000
        a5                             4.000000
        cn-shift                       1.200000
        cn-exp                         4.000000
        max-rad                        5.000000


          ...................................................
          :                      SETUP                      :
          :.................................................:
          :  # basis functions                  78          :
          :  # atomic orbitals                  78          :
          :  # shells                           48          :
          :  # electrons                        82          :
          :  max. iterations                   250          :
          :  Hamiltonian                  GFN2-xTB          :
          :  restarted?                      false          :
          :  GBSA solvation                  false          :
          :  PC potential                    false          :
          :  electronic temp.          300.0000000     K    :
          :  accuracy                    1.0000000          :
          :  -> integral cutoff          0.2500000E+02      :
          :  -> integral neglect         0.1000000E-07      :
          :  -> SCF convergence          0.1000000E-05 Eh   :
          :  -> wf. convergence          0.1000000E-03 e    :
          :  Broyden damping             0.4000000          :
          :  net charge                          0          :
          :  unpaired electrons                  2          :
          ...................................................

 iter      E             dE          RMSdq      gap      omega  full diag
   1    -45.5861676 -0.455862E+02  0.345E+00    0.01       0.0  T
   2    -45.4549076  0.131260E+00  0.329E+00    0.62       1.0  T
   3    -45.3972653  0.576423E-01  0.222E+00    0.19       1.0  T
   4    -45.4760774 -0.788122E-01  0.233E+00    1.07       1.0  T
   5    -45.6351373 -0.159060E+00  0.153E+00    0.48       1.0  T
   6    -45.6379148 -0.277752E-02  0.977E-01    0.40       1.0  T
   7    -45.6737002 -0.357854E-01  0.718E-01    0.25       1.0  T
   8    -45.6764423 -0.274211E-02  0.567E-01    0.23       1.0  T
   9    -45.6779434 -0.150109E-02  0.419E-01    0.23       1.0  T
  10    -45.6781029 -0.159552E-03  0.174E-01    0.19       1.0  T
  11    -45.6795103 -0.140733E-02  0.647E-02    0.17       1.0  T
  12    -45.6795932 -0.829333E-04  0.405E-02    0.17       1.0  T
  13    -45.6796073 -0.141356E-04  0.247E-02    0.16       1.0  T
  14    -45.6796124 -0.507187E-05  0.942E-03    0.16       1.8  T
  15    -45.6796164 -0.401504E-05  0.254E-03    0.16       6.9  T
  16    -45.6796162  0.211127E-06  0.234E-03    0.16       7.4  T
  17    -45.6796165 -0.283257E-06  0.475E-04    0.16      36.6  T
  18    -45.6796165 -0.204299E-08  0.263E-04    0.16      66.2  T

   *** convergence criteria satisfied after 18 iterations ***

         #    Occupation            Energy/Eh            Energy/eV
      -------------------------------------------------------------
         1        2.0000           -0.7284111             -19.8211
       ...           ...                  ...                  ...
        36        2.0000           -0.4340167             -11.8102
        37        2.0000           -0.4241725             -11.5423
        38        2.0000           -0.4204044             -11.4398
        39        2.0000           -0.4077086             -11.0943
        40        1.9997           -0.4038037             -10.9881
        41        1.0003           -0.3886447             -10.5756
        42        0.9570           -0.2283798              -6.2145 (HOMO)
        43        0.0430           -0.2224830              -6.0541 (LUMO)
        44                         -0.2067074              -5.6248
        45                         -0.0953382              -2.5943
        46                          0.0575187               1.5652
        47                          0.0746333               2.0309
       ...                                ...                  ...
        78                          0.6701932              18.2369
      -------------------------------------------------------------
                  HL-Gap            0.0058969 Eh            0.1605 eV
             Fermi-level           -0.3108239 Eh           -8.4579 eV

 transition dipole moment (au) for excitation:          41          42
     X       Y       Z   
  -1.4494   0.4612  -0.2053  total (au/Debye):    1.535   3.901
 dE (eV)             :    4.361
 oscillator strength :  0.35591E+00

 SCC (total)                   0 d,  0 h,  0 min,  0.044 sec
 SCC setup                      ...        0 min,  0.000 sec (  0.528%)
 Dispersion                     ...        0 min,  0.000 sec (  0.615%)
 classical contributions        ...        0 min,  0.000 sec (  0.206%)
 integral evaluation            ...        0 min,  0.004 sec (  9.980%)
 iterations                     ...        0 min,  0.022 sec ( 49.051%)
 molecular gradient             ...        0 min,  0.014 sec ( 30.619%)
 printout                       ...        0 min,  0.004 sec (  8.987%)

         :::::::::::::::::::::::::::::::::::::::::::::::::::::
         ::                     SUMMARY                     ::
         :::::::::::::::::::::::::::::::::::::::::::::::::::::
         :: total energy             -45.013706225053 Eh    ::
         :: gradient norm              0.153337424333 Eh/a0 ::
         :: HOMO-LUMO gap              0.160461751936 eV    ::
         ::.................................................::
         :: SCC energy               -45.679484226968 Eh    ::
         :: -> isotropic ES            0.052742153223 Eh    ::
         :: -> anisotropic ES          0.005217382733 Eh    ::
         :: -> anisotropic XC          0.017293098123 Eh    ::
         :: -> dispersion             -0.029399876182 Eh    ::
         :: repulsion energy           0.665778001915 Eh    ::
         :: add. restraining           0.000000000000 Eh    ::
         :: total charge               0.000000000125 e     ::
         :::::::::::::::::::::::::::::::::::::::::::::::::::::

           -------------------------------------------------
          |                Property Printout                |
           -------------------------------------------------

    * Orbital Energies and Occupations

         #    Occupation            Energy/Eh            Energy/eV
      -------------------------------------------------------------
         1        2.0000           -0.7284111             -19.8211
       ...           ...                  ...                  ...
        30        2.0000           -0.4633381             -12.6081
        31        2.0000           -0.4611986             -12.5499
        32        2.0000           -0.4564866             -12.4216
        33        2.0000           -0.4502972             -12.2532
        34        2.0000           -0.4446447             -12.0994
        35        2.0000           -0.4419685             -12.0266
        36        2.0000           -0.4340167             -11.8102
        37        2.0000           -0.4241725             -11.5423
        38        2.0000           -0.4204044             -11.4398
        39        2.0000           -0.4077086             -11.0943
        40        1.9997           -0.4038037             -10.9881
        41        1.0003           -0.3886447             -10.5756
        42        0.9570           -0.2283798              -6.2145 (HOMO)
        43        0.0430           -0.2224830              -6.0541 (LUMO)
        44                         -0.2067074              -5.6248
        45                         -0.0953382              -2.5943
        46                          0.0575187               1.5652
        47                          0.0746333               2.0309
        48                          0.0869272               2.3654
        49                          0.0902937               2.4570
        50                          0.0997241               2.7136
        51                          0.1206524               3.2831
        52                          0.1326838               3.6105
        53                          0.1386539               3.7730
       ...                                ...                  ...
        78                          0.6701932              18.2369
      -------------------------------------------------------------
                  HL-Gap            0.0058969 Eh            0.1605 eV
             Fermi-level           -0.3108239 Eh           -8.4579 eV

     #   Z          covCN         q      C6AA      α(0)
     1   6 C        3.756    -0.106    22.588     6.777
     2   6 C        3.850    -0.001    20.564     6.450
     3   6 C        3.812    -0.065    21.735     6.636
     4   6 C        2.969     0.011    27.771     8.644
     5   6 C        2.924    -0.041    29.014     8.833
     6   6 C        2.922    -0.036    28.892     8.815
     7   6 C        2.982     0.011    27.756     8.642
     8   6 C        3.858    -0.029    21.051     6.525
     9   6 C        2.701     0.331    21.378     7.568
    10   8 O        1.660    -0.397    20.797     6.156
    11   8 O        0.856    -0.419    22.060     6.297
    12   6 C        3.756    -0.104    22.541     6.769
    13   6 C        2.922    -0.042    29.046     8.838
    14   6 C        2.925    -0.036    28.884     8.814
    15   6 C        3.756    -0.108    22.617     6.781
    16   1 H        0.925     0.039     2.465     2.455
    17   1 H        0.925     0.039     2.460     2.453
    18   1 H        0.925     0.038     2.481     2.463
    19   1 H        0.924     0.033     2.541     2.493
    20   1 H        0.924     0.043     2.406     2.426
    21   1 H        0.924     0.048     2.345     2.395
    22   1 H        0.926     0.032     2.558     2.501
    23   1 H        0.926     0.048     2.348     2.396
    24   1 H        0.924     0.059     2.210     2.325
    25   1 H        0.804     0.322     0.657     1.273
    26   1 H        0.925     0.046     2.370     2.407
    27   1 H        0.925     0.061     2.189     2.314
    28   1 H        0.925     0.046     2.370     2.407
    29   1 H        0.926     0.030     2.585     2.514
    30   1 H        0.926     0.031     2.569     2.506
    31   1 H        0.925     0.035     2.511     2.478
    32   1 H        0.925     0.039     2.464     2.455
    33   1 H        0.925     0.041     2.440     2.443

 Mol. C6AA /au·bohr⁶  :      10215.157967
 Mol. C8AA /au·bohr⁸  :     233877.365886
 Mol. α(0) /au        :        155.248956


Wiberg/Mayer (AO) data.
largest (>0.10) Wiberg bond orders for each atom

 ---------------------------------------------------------------------------
     #   Z sym  total        # sym  WBO       # sym  WBO       # sym  WBO
 ---------------------------------------------------------------------------
     1   6 C    3.994 --     2 C    1.009    17 H    0.986    16 H    0.984
                            18 H    0.984
     2   6 C    3.973 --     1 C    1.009    15 C    1.008    19 H    0.968
                             3 C    0.941
     3   6 C    3.986 --     4 C    1.046    20 H    0.973    21 H    0.952
                             2 C    0.941
     4   6 C    3.712 --    14 C    1.193     5 C    1.171     3 C    1.046
     5   6 C    3.953 --     6 C    1.606     4 C    1.171    22 H    0.969
     6   6 C    3.945 --     5 C    1.606     7 C    1.175    23 H    0.965
     7   6 C    3.796 --     6 C    1.175    13 C    1.157     8 C    1.028
                             9 C    0.122    11 O    0.111
     8   6 C    3.979 --     7 C    1.028    12 C    0.975    24 H    0.960
                             9 C    0.881
     9   6 C    3.875 --    11 O    1.629    10 O    1.075     8 C    0.881
                             7 C    0.122
    10   8 O    2.129 --     9 C    1.075    25 H    0.871    11 O    0.123
    11   8 O    1.982 --     9 C    1.629    10 O    0.123     7 C    0.111
    12   6 C    3.987 --    28 H    0.985    27 H    0.983    26 H    0.982
                             8 C    0.975
    13   6 C    3.941 --    14 C    1.598     7 C    1.157    29 H    0.968
    14   6 C    3.931 --    13 C    1.598     4 C    1.193    30 H    0.968
    15   6 C    3.992 --     2 C    1.008    32 H    0.986    31 H    0.986
                            33 H    0.982
    16   1 H    0.998 --     1 C    0.984
    17   1 H    0.998 --     1 C    0.986
    18   1 H    0.996 --     1 C    0.984
    19   1 H    0.999 --     2 C    0.968
    20   1 H    0.997 --     3 C    0.973
    21   1 H    0.989 --     3 C    0.952
    22   1 H    0.999 --     5 C    0.969
    23   1 H    0.997 --     6 C    0.965
    24   1 H    0.996 --     8 C    0.960
    25   1 H    0.894 --    10 O    0.871
    26   1 H    0.997 --    12 C    0.982
    27   1 H    0.996 --    12 C    0.983
    28   1 H    0.997 --    12 C    0.985
    29   1 H    0.999 --    13 C    0.968
    30   1 H    0.998 --    14 C    0.968
    31   1 H    0.998 --    15 C    0.986
    32   1 H    0.998 --    15 C    0.986
    33   1 H    0.995 --    15 C    0.982
 ---------------------------------------------------------------------------

Topologies differ in total number of bonds
Writing topology from bond orders to xtbtopo.mol

molecular dipole:
                 x           y           z       tot (Debye)
 q only:       -1.160      -0.089      -0.580
   full:       -1.078       0.050      -0.678       3.240
molecular quadrupole (traceless):
                xx          xy          yy          xz          yz          zz
 q only:       -2.403      -1.639       5.224      -7.721      -1.221      -2.820
  q+dip:       -0.124      -1.821       3.200      -8.457       0.922      -3.075
   full:       -0.588      -0.572       5.122      -8.684      -0.231      -4.534


           -------------------------------------------------
          | TOTAL ENERGY              -45.013706225053 Eh   |
          | GRADIENT NORM               0.153337424333 Eh/α |
          | HOMO-LUMO GAP               0.160461751936 eV   |
           -------------------------------------------------

------------------------------------------------------------------------
 * finished run on 2025/05/15 at 16:30:39.179     
------------------------------------------------------------------------
 total:
 * wall-time:     0 d,  0 h,  0 min,  0.054 sec
 *  cpu-time:     0 d,  0 h,  0 min,  0.053 sec
 * ratio c/w:     0.972 speedup
 SCF:
 * wall-time:     0 d,  0 h,  0 min,  0.044 sec
 *  cpu-time:     0 d,  0 h,  0 min,  0.044 sec
 * ratio c/w:     0.995 speedup


